/*--------------------------------*- C++ -*----------------------------------*\
  =========                 |
  \\      /  F ield         | OpenFOAM: The Open Source CFD Toolbox
   \\    /   O peration     | Website:  https://openfoam.org
    \\  /    A nd           | Version:  7
     \\/     M anipulation  |
\*---------------------------------------------------------------------------*/
FoamFile
{
    version     2.0;
    format      ascii;
    class       volScalarField;
    location    "5";
    object      p;
}
// * * * * * * * * * * * * * * * * * * * * * * * * * * * * * * * * * * * * * //

dimensions      [0 2 -2 0 0 0 0];

internalField   nonuniform List<scalar> 
6386
(
-0.344126
-0.350087
-0.352121
-0.35252
-0.351533
-0.349236
-0.3458
-0.341389
-0.336116
-0.329869
-0.34495
-0.350769
-0.352714
-0.353033
-0.351974
-0.349612
-0.346116
-0.341659
-0.336342
-0.329958
-0.34659
-0.352127
-0.353894
-0.354055
-0.35285
-0.350359
-0.346744
-0.342191
-0.336789
-0.330129
-0.349031
-0.35415
-0.355652
-0.355575
-0.354154
-0.351467
-0.347671
-0.342973
-0.337445
-0.330355
-0.352252
-0.356821
-0.357973
-0.357581
-0.35587
-0.352921
-0.348884
-0.343988
-0.338294
-0.330565
-0.356225
-0.36012
-0.36084
-0.360056
-0.357983
-0.354706
-0.350363
-0.345215
-0.339317
-0.330665
-0.360922
-0.364024
-0.36423
-0.362979
-0.360474
-0.356802
-0.352088
-0.346623
-0.340485
-0.331052
-0.366307
-0.368506
-0.368121
-0.366329
-0.363322
-0.359188
-0.35404
-0.34821
-0.341691
-0.331357
-0.372347
-0.373539
-0.37249
-0.370086
-0.366509
-0.361848
-0.356199
-0.349939
-0.342995
-0.33151
-0.379006
-0.379095
-0.377312
-0.374228
-0.370015
-0.364764
-0.35855
-0.351793
-0.344376
-0.331503
-0.386252
-0.385147
-0.382561
-0.378736
-0.373825
-0.367925
-0.361083
-0.353763
-0.34581
-0.331289
-0.394051
-0.391665
-0.388218
-0.38359
-0.377925
-0.371322
-0.363793
-0.355845
-0.347287
-0.330855
-0.402373
-0.398626
-0.394258
-0.388775
-0.382306
-0.374952
-0.366687
-0.358047
-0.348807
-0.330159
-0.411186
-0.406001
-0.400662
-0.394275
-0.38696
-0.378818
-0.369776
-0.360391
-0.350379
-0.329184
-0.420459
-0.413766
-0.407407
-0.400079
-0.391885
-0.382927
-0.373084
-0.362913
-0.352038
-0.327963
-0.421892
-0.414475
-0.406173
-0.397078
-0.387293
-0.376643
-0.365674
-0.353848
-0.326618
-0.430349
-0.421843
-0.412544
-0.402537
-0.391928
-0.380493
-0.368745
-0.355852
-0.32525
-0.439106
-0.429486
-0.419179
-0.408261
-0.396849
-0.384692
-0.372218
-0.357945
-0.323667
-0.437378
-0.426059
-0.414243
-0.402075
-0.38933
-0.37629
-0.360339
-0.32284
-0.445486
-0.43316
-0.420467
-0.407609
-0.394475
-0.381285
-0.365213
-0.332449
-0.440448
-0.426893
-0.41339
-0.39999
-0.38701
-0.374497
-0.371698
-0.433471
-0.419304
-0.405551
-0.392506
-0.38085
-0.384756
-0.440149
-0.425276
-0.411006
-0.397511
-0.385189
-0.389274
-0.43126
-0.416339
-0.402161
-0.388833
-0.391534
-0.421523
-0.406478
-0.391949
-0.392181
-0.410412
-0.394481
-0.391614
-0.396418
-0.390174
-0.388037
-0.397741
-0.388018
-0.396413
-0.390159
-0.410422
-0.394477
-0.391603
-0.421544
-0.406487
-0.391946
-0.392173
-0.43129
-0.416358
-0.40217
-0.38883
-0.391528
-0.440184
-0.425302
-0.411024
-0.397519
-0.385186
-0.38927
-0.433503
-0.419328
-0.405566
-0.392513
-0.380847
-0.384752
-0.440484
-0.426923
-0.413412
-0.400004
-0.387016
-0.374494
-0.371692
-0.445524
-0.433192
-0.420493
-0.407629
-0.394488
-0.38129
-0.365209
-0.332432
-0.437411
-0.426088
-0.414267
-0.402093
-0.38934
-0.376294
-0.360335
-0.32282
-0.43914
-0.429516
-0.419205
-0.408282
-0.396864
-0.384701
-0.372221
-0.357941
-0.323649
-0.430378
-0.421869
-0.412567
-0.402556
-0.391942
-0.380501
-0.368747
-0.355849
-0.325233
-0.430187
-0.421917
-0.414499
-0.406193
-0.397094
-0.387305
-0.37665
-0.365676
-0.353845
-0.326603
-0.420483
-0.413788
-0.407428
-0.400097
-0.3919
-0.382938
-0.37309
-0.362915
-0.352035
-0.327951
-0.411206
-0.406021
-0.40068
-0.394291
-0.386973
-0.378827
-0.369782
-0.360392
-0.350377
-0.329172
-0.40239
-0.398643
-0.394274
-0.388788
-0.382317
-0.37496
-0.366692
-0.358048
-0.348804
-0.330149
-0.394066
-0.39168
-0.388231
-0.383602
-0.377935
-0.371329
-0.363798
-0.355846
-0.347285
-0.330847
-0.386264
-0.385159
-0.382573
-0.378746
-0.373833
-0.367931
-0.361086
-0.353764
-0.345808
-0.331282
-0.379016
-0.379106
-0.377322
-0.374237
-0.370022
-0.36477
-0.358553
-0.351794
-0.344374
-0.331497
-0.372355
-0.373548
-0.372498
-0.370094
-0.366515
-0.361853
-0.356202
-0.34994
-0.342993
-0.331505
-0.366314
-0.368514
-0.368129
-0.366336
-0.363328
-0.359192
-0.354042
-0.348211
-0.341689
-0.331353
-0.360927
-0.36403
-0.364236
-0.362984
-0.360478
-0.356805
-0.35209
-0.346624
-0.340484
-0.331048
-0.35623
-0.360125
-0.360845
-0.36006
-0.357987
-0.354709
-0.350364
-0.345216
-0.339316
-0.330662
-0.352255
-0.356825
-0.357977
-0.357585
-0.355873
-0.352924
-0.348885
-0.343989
-0.338293
-0.330562
-0.349033
-0.354153
-0.355655
-0.355578
-0.354156
-0.351468
-0.347672
-0.342973
-0.337445
-0.330354
-0.346591
-0.352129
-0.353896
-0.354057
-0.352852
-0.35036
-0.346745
-0.342191
-0.336788
-0.330128
-0.344951
-0.35077
-0.352715
-0.353034
-0.351975
-0.349613
-0.346117
-0.341659
-0.336342
-0.329958
-0.344127
-0.350088
-0.352122
-0.35252
-0.351533
-0.349237
-0.3458
-0.341389
-0.336116
-0.329868
-0.324717
-0.318983
-0.312491
-0.305347
-0.297437
-0.288795
-0.279442
-0.269393
-0.258677
-0.247328
-0.235386
-0.222897
-0.209914
-0.196496
-0.18271
-0.168631
-0.154345
-0.139944
-0.125532
-0.111222
-0.097132
-0.0833875
-0.0701153
-0.0574416
-0.045489
-0.0343714
-0.0241942
-0.0150418
-0.00699561
-8.49521e-05
0.0056148
0.0101932
0.0134811
0.01589
0.0167951
0.0175771
0.016003
0.016381
0.0114772
0.0141456
0.00270561
0.0139993
-0.325209
-0.319383
-0.31285
-0.305682
-0.297756
-0.289102
-0.27974
-0.269686
-0.258967
-0.247616
-0.235674
-0.223185
-0.210202
-0.196784
-0.182997
-0.168917
-0.154627
-0.140222
-0.125805
-0.111488
-0.0973896
-0.0836352
-0.0703517
-0.0576656
-0.0456997
-0.034568
-0.0243761
-0.0152086
-0.00714707
-0.000221111
0.00549378
0.0100868
0.0133891
0.0158111
0.0167292
0.0175218
0.0159598
0.0163436
0.0114537
0.0141178
0.00270332
0.0139654
-0.326181
-0.32017
-0.313553
-0.306345
-0.298385
-0.289707
-0.280329
-0.270263
-0.259538
-0.248184
-0.236241
-0.223753
-0.210771
-0.197353
-0.183566
-0.169483
-0.155188
-0.140775
-0.126347
-0.112016
-0.0979008
-0.0841269
-0.0708213
-0.0581109
-0.0461187
-0.0349591
-0.024738
-0.0155406
-0.00744869
-0.000492335
0.00525264
0.00987492
0.0132056
0.0156539
0.0165979
0.0174115
0.0158735
0.0162689
0.011407
0.0140623
0.00269876
0.0138978
-0.327619
-0.321329
-0.314587
-0.30732
-0.299309
-0.290594
-0.281191
-0.27111
-0.260375
-0.249018
-0.237075
-0.224588
-0.211609
-0.198192
-0.184404
-0.170318
-0.156016
-0.141592
-0.127148
-0.112797
-0.0986582
-0.0848559
-0.071518
-0.0587717
-0.0467408
-0.03554
-0.0252759
-0.0160342
-0.00789732
-0.000895922
0.00489367
0.00955934
0.0129322
0.0154196
0.0164019
0.0172468
0.0157447
0.0161573
0.0113372
0.0139794
0.00269202
0.013797
-0.329588
-0.322813
-0.31592
-0.308582
-0.300503
-0.29174
-0.282305
-0.272203
-0.261459
-0.250098
-0.238156
-0.225673
-0.212698
-0.199285
-0.185497
-0.171407
-0.157097
-0.14266
-0.128197
-0.113821
-0.099651
-0.0858121
-0.0724324
-0.0596398
-0.0475584
-0.036304
-0.0259837
-0.0166841
-0.00848834
-0.00142791
0.00442022
0.00914287
0.0125712
0.01511
0.0161429
0.017029
0.0155742
0.0160095
0.0112448
0.0138694
0.0026832
0.0136636
-0.332259
-0.324453
-0.317491
-0.310097
-0.301937
-0.293115
-0.283641
-0.273518
-0.262762
-0.251399
-0.23946
-0.226985
-0.214017
-0.200609
-0.186824
-0.172732
-0.158414
-0.143962
-0.129477
-0.115072
-0.100865
-0.0869827
-0.0735529
-0.0607043
-0.0485619
-0.0372423
-0.0268537
-0.0174834
-0.00921581
-0.00208317
0.00383666
0.00862913
0.0121255
0.0147275
0.0158227
0.0167594
0.0153632
0.0158262
0.0111304
0.0137329
0.00267244
0.0134984
-0.334528
-0.326743
-0.319342
-0.311833
-0.303581
-0.294686
-0.285168
-0.275019
-0.264253
-0.252891
-0.24096
-0.228495
-0.215539
-0.202142
-0.188362
-0.17427
-0.159945
-0.145478
-0.13097
-0.116532
-0.102284
-0.0883524
-0.0748654
-0.0619525
-0.0497397
-0.0383447
-0.0278767
-0.0184241
-0.0100726
-0.00285557
0.00314818
0.00802249
0.0115988
0.0142749
0.0154435
0.0164398
0.0151129
0.0156084
0.0109946
0.0135704
0.00265994
0.0133025
-0.337348
-0.329458
-0.321402
-0.313754
-0.305394
-0.296415
-0.286848
-0.276673
-0.265899
-0.254541
-0.242623
-0.230176
-0.217237
-0.203854
-0.190085
-0.175996
-0.161667
-0.147186
-0.132654
-0.118182
-0.10389
-0.0899041
-0.0763541
-0.0633699
-0.0510787
-0.0395992
-0.029042
-0.0194968
-0.0110506
-0.0037381
0.00236077
0.00732794
0.0109952
0.0137555
0.0150081
0.0160721
0.0148249
0.0153573
0.0108382
0.0133828
0.0026459
0.013077
-0.340518
-0.332045
-0.323594
-0.315822
-0.307336
-0.298262
-0.288642
-0.278443
-0.267664
-0.256317
-0.244418
-0.231994
-0.219079
-0.205718
-0.191965
-0.177884
-0.163553
-0.14906
-0.134506
-0.12
-0.105662
-0.0916192
-0.0780019
-0.0649409
-0.0525646
-0.0409931
-0.0303382
-0.0206914
-0.0121408
-0.00472303
0.00148102
0.00655101
0.0103191
0.0131731
0.0145192
0.0156587
0.0145009
0.015074
0.0106622
0.0131709
0.00263056
0.0128233
-0.343978
-0.334873
-0.325923
-0.317992
-0.309362
-0.300186
-0.290512
-0.28029
-0.269513
-0.258183
-0.246311
-0.233919
-0.221036
-0.207703
-0.193972
-0.179905
-0.165578
-0.151077
-0.136502
-0.121963
-0.107579
-0.093478
-0.0797906
-0.0666489
-0.0541824
-0.0425126
-0.0317532
-0.0219969
-0.0133338
-0.00580211
0.000515982
0.00569764
0.00957566
0.0125316
0.01398
0.0152019
0.0141428
0.0147601
0.0104675
0.0129355
0.00261418
0.0125428
-0.347426
-0.337838
-0.328331
-0.320217
-0.311431
-0.302148
-0.292419
-0.282179
-0.271409
-0.260105
-0.248269
-0.235918
-0.223076
-0.20978
-0.196078
-0.182032
-0.167714
-0.15321
-0.138618
-0.124049
-0.10962
-0.0954606
-0.0817019
-0.0684769
-0.0559165
-0.0441438
-0.0332742
-0.0234022
-0.0146197
-0.00696673
-0.00052692
0.00477409
0.00876996
0.0118353
0.0133941
0.0147043
0.0137525
0.0144169
0.0102551
0.0126778
0.00259705
0.012237
-0.351154
-0.340913
-0.330767
-0.322453
-0.3135
-0.304106
-0.294326
-0.284073
-0.27332
-0.262051
-0.250261
-0.23796
-0.225168
-0.211918
-0.198255
-0.184237
-0.169936
-0.155434
-0.140831
-0.126234
-0.111764
-0.0975469
-0.0837169
-0.0704076
-0.0577512
-0.0458724
-0.0348884
-0.0248959
-0.0159883
-0.00820805
-0.00164009
0.0037868
0.00790739
0.0110884
0.0127649
0.0141688
0.0133323
0.0140462
0.0100263
0.0123988
0.00257949
0.0119076
-0.354919
-0.34402
-0.333187
-0.324653
-0.315527
-0.306024
-0.296198
-0.285942
-0.275214
-0.263991
-0.252258
-0.240018
-0.227286
-0.214091
-0.200476
-0.186495
-0.172217
-0.157725
-0.143116
-0.128497
-0.113988
-0.0997175
-0.0858178
-0.0724244
-0.0596712
-0.0476844
-0.0365833
-0.0264665
-0.0174296
-0.00951736
-0.00281597
0.00274219
0.00699336
0.0102955
0.0120959
0.0135981
0.0128842
0.0136496
0.00978206
0.0120996
0.00256178
0.0115562
-0.358646
-0.347097
-0.335545
-0.326772
-0.317469
-0.307866
-0.298004
-0.287755
-0.277065
-0.265897
-0.254232
-0.242064
-0.229403
-0.216274
-0.202715
-0.18878
-0.174535
-0.160061
-0.145452
-0.130818
-0.116276
-0.101954
-0.0879874
-0.0745116
-0.061662
-0.0495667
-0.0383469
-0.0281035
-0.0189342
-0.0108862
-0.0040472
0.00164659
0.0060332
0.00946095
0.0113908
0.012995
0.0124105
0.0132287
0.00952365
0.0117814
0.0025443
0.0111843
-0.362231
-0.350051
-0.337784
-0.328756
-0.319283
-0.309598
-0.299716
-0.289487
-0.278846
-0.267748
-0.256161
-0.244075
-0.231496
-0.218443
-0.204951
-0.191071
-0.176868
-0.162419
-0.14782
-0.133176
-0.118606
-0.104239
-0.090209
-0.0766534
-0.0637089
-0.0515056
-0.0401667
-0.0297954
-0.0204916
-0.0123054
-0.00532572
0.000506962
0.0050329
0.00858971
0.0106537
0.0123628
0.0119139
0.0127856
0.00925255
0.0114456
0.00252761
0.0107937
-0.365483
-0.352709
-0.339825
-0.330543
-0.320922
-0.311189
-0.301309
-0.291116
-0.28054
-0.269522
-0.258025
-0.246032
-0.233543
-0.220576
-0.207161
-0.193345
-0.179192
-0.164777
-0.150194
-0.135548
-0.120957
-0.10655
-0.0924613
-0.0788295
-0.0657929
-0.0534834
-0.0420263
-0.0315273
-0.0220886
-0.0137632
-0.0066412
-0.000667806
0.004
0.00768804
0.00988977
0.0117055
0.0113974
0.0123226
0.00897047
0.0110934
0.00251234
0.0103859
-0.36803
-0.35484
-0.341614
-0.3321
-0.322361
-0.312621
-0.302769
-0.29263
-0.282131
-0.271203
-0.259805
-0.247913
-0.235524
-0.22265
-0.209319
-0.195577
-0.181482
-0.16711
-0.152551
-0.137911
-0.123306
-0.108866
-0.0947243
-0.0810217
-0.0678974
-0.0554853
-0.0439128
-0.0332882
-0.0237158
-0.0152517
-0.0079873
-0.00187272
0.00293822
0.00675866
0.00910065
0.0110244
0.0108615
0.0118404
0.00867684
0.0107264
0.00249701
0.00996317
-0.369602
-0.35642
-0.343212
-0.333436
-0.323592
-0.313883
-0.304085
-0.294018
-0.283608
-0.272782
-0.261493
-0.249713
-0.237435
-0.224666
-0.211433
-0.197776
-0.183752
-0.169435
-0.154913
-0.14029
-0.125682
-0.111217
-0.0970302
-0.0832628
-0.0700553
-0.0575435
-0.0458572
-0.0351071
-0.0254
-0.0167954
-0.00938612
-0.00312733
0.00183018
0.00578677
0.00827318
0.0103093
0.0102966
0.0113338
0.00836506
0.0103449
0.00247624
0.00952791
-0.369976
-0.356763
-0.344239
-0.334332
-0.324475
-0.314888
-0.305207
-0.295253
-0.284962
-0.274265
-0.26311
-0.251467
-0.239323
-0.226685
-0.213572
-0.200023
-0.186091
-0.171848
-0.157378
-0.142785
-0.128184
-0.113701
-0.0994739
-0.0856426
-0.0723499
-0.0597338
-0.0479267
-0.0370426
-0.0271911
-0.0184356
-0.0108704
-0.00445683
0.000657908
0.00475984
0.00740051
0.00955584
0.00970302
0.0108017
0.00803955
0.00994645
0.00245812
0.00907703
-0.362773
-0.351664
-0.343398
-0.334254
-0.324746
-0.315501
-0.306064
-0.296294
-0.286164
-0.27562
-0.264613
-0.253114
-0.241109
-0.228601
-0.215607
-0.202162
-0.188318
-0.174143
-0.159722
-0.145155
-0.130556
-0.116053
-0.101782
-0.0878862
-0.0745086
-0.0617899
-0.0498648
-0.0388505
-0.0288587
-0.0199576
-0.012241
-0.00567988
-0.000411237
0.00382469
0.00661938
0.00887219
0.00918757
0.0103046
0.00778064
0.00953321
0.00251304
0.00859232
-0.327768
-0.337682
-0.341655
-0.33459
-0.325762
-0.317008
-0.307889
-0.298313
-0.28831
-0.277856
-0.266916
-0.255466
-0.243496
-0.23101
-0.218027
-0.204582
-0.190725
-0.176524
-0.162064
-0.147444
-0.132781
-0.118201
-0.103842
-0.0898474
-0.0763632
-0.0635309
-0.0514859
-0.0403479
-0.0302275
-0.0211984
-0.0133471
-0.00666247
-0.0012539
0.00308239
0.00602801
0.00831831
0.0088264
0.00984127
0.00765552
0.00901421
0.00274779
0.00791241
-0.320975
-0.326608
-0.332535
-0.326772
-0.318819
-0.31092
-0.302535
-0.293544
-0.284037
-0.274034
-0.263518
-0.252478
-0.240909
-0.228819
-0.216228
-0.203169
-0.189691
-0.175859
-0.161753
-0.147472
-0.133124
-0.118836
-0.104739
-0.0909756
-0.0776872
-0.0650139
-0.0530896
-0.0420341
-0.031957
-0.022936
-0.0150541
-0.0083135
-0.00280675
0.00162796
0.00473527
0.00712574
0.00787274
0.00891152
0.0071109
0.00826151
0.00274177
0.00713023
-0.315675
-0.31775
-0.322782
-0.317831
-0.310599
-0.303369
-0.295625
-0.287203
-0.278206
-0.26868
-0.258622
-0.248029
-0.236905
-0.22526
-0.213114
-0.200501
-0.187468
-0.174077
-0.160404
-0.146543
-0.1326
-0.118693
-0.104951
-0.0915105
-0.0785091
-0.0660832
-0.0543639
-0.0434695
-0.0335079
-0.0245592
-0.0167035
-0.00995323
-0.00438912
0.000118785
0.00336101
0.00585225
0.00681755
0.00791568
0.00646556
0.00749662
0.00262886
0.00639005
-0.309705
-0.309162
-0.312929
-0.308603
-0.302022
-0.295352
-0.288187
-0.280328
-0.27186
-0.262837
-0.253267
-0.243151
-0.232498
-0.221321
-0.209643
-0.197497
-0.184928
-0.171995
-0.158773
-0.14535
-0.131827
-0.11832
-0.104951
-0.0918517
-0.0791558
-0.0669961
-0.0555002
-0.044785
-0.0349566
-0.0260966
-0.018283
-0.011537
-0.00592929
-0.00135833
0.00200642
0.00459326
0.00576403
0.00692387
0.00580793
0.00673327
0.00249221
0.00566838
-0.302137
-0.300012
-0.30237
-0.298446
-0.292474
-0.286339
-0.279743
-0.272469
-0.264572
-0.256104
-0.247075
-0.237492
-0.227365
-0.21671
-0.20555
-0.193919
-0.18186
-0.169431
-0.156702
-0.143759
-0.130697
-0.117628
-0.104669
-0.0919465
-0.0795899
-0.067728
-0.0564854
-0.0459767
-0.0363064
-0.0275574
-0.0198059
-0.0130807
-0.00744495
-0.00282166
0.000653507
0.00333224
0.0046974
0.00592446
0.00512865
0.00596662
0.00232928
0.00496374
-0.292529
-0.289752
-0.290782
-0.287153
-0.281794
-0.276208
-0.270185
-0.263518
-0.256229
-0.248361
-0.239924
-0.230926
-0.221379
-0.211299
-0.200711
-0.189646
-0.178149
-0.166274
-0.154088
-0.141673
-0.129121
-0.116536
-0.104033
-0.091731
-0.079756
-0.068232
-0.0572801
-0.0470127
-0.0375325
-0.0289231
-0.0212595
-0.0145768
-0.00893257
-0.00427098
-0.00070015
0.00206553
0.0036125
0.00491401
0.0044222
0.00519774
0.0021338
0.0042811
-0.28086
-0.278116
-0.278069
-0.274731
-0.27002
-0.265019
-0.259586
-0.253545
-0.246894
-0.239663
-0.231859
-0.223491
-0.214569
-0.205111
-0.19514
-0.184689
-0.1738
-0.162524
-0.150927
-0.139086
-0.127087
-0.115032
-0.103027
-0.0911882
-0.0796355
-0.0684885
-0.0578645
-0.0478734
-0.0386156
-0.0301751
-0.0226262
-0.0160091
-0.0103775
-0.00569344
-0.00204314
0.000802599
0.00251752
0.00389894
0.00369361
0.00443121
0.00190742
0.00362489
-0.267278
-0.265061
-0.264265
-0.261267
-0.257241
-0.252869
-0.24805
-0.242652
-0.236662
-0.230095
-0.222957
-0.215252
-0.206993
-0.198195
-0.188881
-0.179084
-0.168842
-0.158207
-0.147239
-0.136011
-0.124606
-0.113119
-0.101652
-0.0903153
-0.0792226
-0.0684893
-0.0582284
-0.0485467
-0.0395426
-0.0312998
-0.023892
-0.0173638
-0.0117663
-0.00707648
-0.00336364
-0.000446328
0.00142185
0.00288655
0.00294946
0.00367155
0.0016538
0.0029987
-0.252123
-0.25073
-0.249523
-0.24693
-0.243615
-0.239903
-0.23572
-0.230977
-0.225661
-0.219776
-0.213323
-0.206305
-0.198734
-0.190624
-0.181998
-0.172885
-0.163323
-0.15336
-0.143054
-0.132473
-0.121697
-0.110812
-0.0999176
-0.0891166
-0.0785179
-0.0682314
-0.0583658
-0.0490246
-0.0403038
-0.0322866
-0.0250456
-0.0186295
-0.0130875
-0.00840934
-0.00465134
-0.00167227
0.000333915
0.00188337
0.00219593
0.00292295
0.00137659
0.00240569
-0.235859
-0.235409
-0.234089
-0.231961
-0.229358
-0.226322
-0.222783
-0.218699
-0.214058
-0.208858
-0.203096
-0.196776
-0.189905
-0.182499
-0.174577
-0.166169
-0.157308
-0.148041
-0.138421
-0.128513
-0.118391
-0.108136
-0.0978418
-0.0876052
-0.0775291
-0.0677182
-0.0582765
-0.0493039
-0.0408936
-0.0331276
-0.0260781
-0.0197964
-0.014331
-0.00968224
-0.00589666
-0.00286672
-0.000738123
0.000895759
0.0014392
0.00218944
0.00107966
0.00184874
-0.218996
-0.219466
-0.218267
-0.216641
-0.214725
-0.212354
-0.209455
-0.206019
-0.20204
-0.197515
-0.192437
-0.18681
-0.180639
-0.173939
-0.166728
-0.159031
-0.150882
-0.142323
-0.133403
-0.124184
-0.114733
-0.105127
-0.0954532
-0.0858024
-0.0762714
-0.0669595
-0.0579656
-0.0493855
-0.0413095
-0.0338181
-0.0269828
-0.0208568
-0.0154882
-0.0108863
-0.00709056
-0.00402144
-0.00178618
-6.98993e-05
0.000685673
0.00147504
0.000767257
0.00133027
-0.202021
-0.203295
-0.202372
-0.201254
-0.199978
-0.198238
-0.195953
-0.193138
-0.1898
-0.185926
-0.181513
-0.176562
-0.171078
-0.165074
-0.158565
-0.151576
-0.144138
-0.136287
-0.128072
-0.119547
-0.110775
-0.101829
-0.0927875
-0.0837364
-0.0747663
-0.0659704
-0.0574426
-0.0492745
-0.0415528
-0.0343563
-0.0277552
-0.0218043
-0.0165517
-0.0120134
-0.00822468
-0.00512859
-0.00280243
-0.00100735
-5.82073e-05
0.000783629
0.000443898
0.000852149
-0.185349
-0.187262
-0.186695
-0.186065
-0.18536
-0.184197
-0.182486
-0.180256
-0.177519
-0.174263
-0.170484
-0.166181
-0.161361
-0.156031
-0.150208
-0.143912
-0.137172
-0.130022
-0.122504
-0.11467
-0.106576
-0.0982902
-0.0898849
-0.0814397
-0.0730389
-0.0647698
-0.0567209
-0.048979
-0.0416274
-0.0347425
-0.0283931
-0.0226347
-0.0175153
-0.0130569
-0.00929147
-0.00618091
-0.00377938
-0.00191054
-0.000786078
0.000118934
0.000114243
0.000415618
-0.169293
-0.171671
-0.17148
-0.171293
-0.171081
-0.170428
-0.169237
-0.167543
-0.165361
-0.162682
-0.159497
-0.155807
-0.151616
-0.146932
-0.141767
-0.136141
-0.130078
-0.12361
-0.116775
-0.109618
-0.102193
-0.0945604
-0.0867873
-0.0789468
-0.071117
-0.0633792
-0.0558161
-0.0485098
-0.0415397
-0.0349794
-0.0288959
-0.0233449
-0.0183744
-0.0140109
-0.0102842
-0.00717174
-0.00471006
-0.00277375
-0.00149178
-0.00051554
-0.000217016
2.12225e-05
-0.154064
-0.156746
-0.156909
-0.157106
-0.157305
-0.157089
-0.156357
-0.155144
-0.153465
-0.151313
-0.148678
-0.145558
-0.141958
-0.137882
-0.133342
-0.128355
-0.122941
-0.117129
-0.110953
-0.104454
-0.0976811
-0.0906879
-0.083536
-0.0762925
-0.069029
-0.0618209
-0.0547452
-0.047879
-0.0412973
-0.0350709
-0.0292645
-0.0239335
-0.0191255
-0.0148704
-0.0111971
-0.00809508
-0.00558804
-0.00359158
-0.00216946
-0.00111655
-0.000545256
-0.000331213
-0.139782
-0.142632
-0.143103
-0.143617
-0.144149
-0.144297
-0.14396
-0.143169
-0.141939
-0.140262
-0.138127
-0.135532
-0.132478
-0.12897
-0.125017
-0.120632
-0.115833
-0.110647
-0.105102
-0.0992356
-0.0930909
-0.0867171
-0.0801697
-0.0735097
-0.0668025
-0.0601174
-0.0535257
-0.0470995
-0.0409093
-0.0350224
-0.0295012
-0.0244002
-0.0197662
-0.0156319
-0.0120253
-0.00894567
-0.00640754
-0.00435913
-0.00281369
-0.00168116
-0.000866031
-0.000642564
-0.126493
-0.129407
-0.130129
-0.130895
-0.131687
-0.132131
-0.132127
-0.1317
-0.130863
-0.129607
-0.127922
-0.125804
-0.123251
-0.120267
-0.116858
-0.113036
-0.108817
-0.10422
-0.099274
-0.09401
-0.0884666
-0.0826878
-0.0767235
-0.0706287
-0.0644631
-0.0582898
-0.0521747
-0.0461843
-0.0403849
-0.03484
-0.0296092
-0.0247456
-0.0202952
-0.0162924
-0.0127647
-0.00971906
-0.00716348
-0.00507201
-0.00341952
-0.0022068
-0.00117524
-0.000914263
-0.114197
-0.117097
-0.118013
-0.118972
-0.119961
-0.120639
-0.120908
-0.120789
-0.120291
-0.119406
-0.11812
-0.11643
-0.114331
-0.111827
-0.10892
-0.10562
-0.101939
-0.0978961
-0.093513
-0.0888183
-0.0838455
-0.0786339
-0.0732279
-0.0676767
-0.0620343
-0.0563582
-0.0507083
-0.0451464
-0.0397338
-0.0345303
-0.0295925
-0.0249715
-0.0207124
-0.0168502
-0.0134123
-0.0104116
-0.00785159
-0.00572643
-0.00398262
-0.00269132
-0.00146921
-0.00114822
-0.102859
-0.105693
-0.106752
-0.107851
-0.108984
-0.109841
-0.110331
-0.110468
-0.110259
-0.109694
-0.10876
-0.10745
-0.10576
-0.10369
-0.101242
-0.0984217
-0.0952398
-0.0917108
-0.087854
-0.0836937
-0.0792591
-0.0745845
-0.0697093
-0.0646775
-0.0595372
-0.0543406
-0.0491421
-0.0439982
-0.0389657
-0.0341004
-0.0294557
-0.0250805
-0.0210182
-0.0173045
-0.0139662
-0.0110206
-0.0084684
-0.00631924
-0.0044993
-0.00313296
-0.00174474
-0.00134673
-0.0924311
-0.0951646
-0.0963224
-0.097518
-0.09875
-0.0997408
-0.100404
-0.100751
-0.100784
-0.100493
-0.0998643
-0.0988899
-0.0975643
-0.0958851
-0.0938527
-0.0914707
-0.088747
-0.0856931
-0.082325
-0.0786632
-0.0747329
-0.0705638
-0.0661905
-0.0616517
-0.0569906
-0.0522536
-0.0474902
-0.0427517
-0.0380904
-0.0335579
-0.0292042
-0.0250759
-0.0212145
-0.0176554
-0.0144252
-0.0115441
-0.00901136
-0.00684805
-0.00496657
-0.00353045
-0.00199917
-0.00151234
-0.0828558
-0.0854676
-0.0866885
-0.0879457
-0.0892409
-0.0903271
-0.0911243
-0.0916385
-0.091872
-0.0918127
-0.0914472
-0.0907657
-0.0897618
-0.0884315
-0.0867732
-0.0847886
-0.082483
-0.0798652
-0.0769482
-0.0737488
-0.0702884
-0.0665924
-0.0626908
-0.0586178
-0.0544112
-0.0501126
-0.0457662
-0.0414187
-0.0371176
-0.0329106
-0.0288441
-0.024962
-0.0213038
-0.0179043
-0.0147892
-0.0119814
-0.0094788
-0.00731119
-0.00538219
-0.00388301
-0.00223037
-0.00164775
-0.0740753
-0.0765534
-0.0778095
-0.0791003
-0.0804303
-0.0815805
-0.0824773
-0.0831238
-0.0835204
-0.0836547
-0.0835132
-0.0830851
-0.082363
-0.0813414
-0.0800175
-0.0783908
-0.0764643
-0.0742445
-0.0717413
-0.0689683
-0.0659433
-0.0626878
-0.0592275
-0.055592
-0.0518145
-0.0479317
-0.0439832
-0.0400107
-0.0360573
-0.0321668
-0.0283819
-0.0247437
-0.0212897
-0.0180532
-0.0150594
-0.0123325
-0.00987001
-0.0077078
-0.0057447
-0.00419034
-0.00243677
-0.0017557
-0.0660329
-0.0683721
-0.0696416
-0.0709445
-0.0722869
-0.0734757
-0.0744438
-0.0751921
-0.0757194
-0.0760134
-0.0760605
-0.0758496
-0.0753723
-0.074622
-0.0735947
-0.0722881
-0.0707033
-0.0688443
-0.0667186
-0.0643367
-0.061713
-0.0588654
-0.0558157
-0.0525893
-0.0492149
-0.0457247
-0.0421536
-0.038539
-0.0349197
-0.0313353
-0.027825
-0.0244271
-0.0211765
-0.0181053
-0.0152377
-0.0125985
-0.0101852
-0.00803782
-0.0060534
-0.00445263
-0.00261737
-0.00183887
-0.0586751
-0.0608742
-0.062141
-0.0634395
-0.0647771
-0.0659842
-0.0670004
-0.0678246
-0.0684547
-0.0688786
-0.069083
-0.0690564
-0.06879
-0.0682763
-0.0675099
-0.0664878
-0.0652089
-0.0636752
-0.0618917
-0.0598664
-0.0576106
-0.0551389
-0.0524694
-0.0496235
-0.0466259
-0.0435045
-0.04029
-0.0370154
-0.0337152
-0.0304254
-0.0271816
-0.0240188
-0.0209698
-0.0180649
-0.0153272
-0.0127815
-0.0104256
-0.00830201
-0.00630834
-0.00467058
-0.00277166
-0.00189981
-0.0519517
-0.0540127
-0.0552647
-0.0565465
-0.0578662
-0.0590759
-0.0601211
-0.0609998
-0.0617089
-0.0622369
-0.0625707
-0.062699
-0.0626126
-0.0623035
-0.0617654
-0.0609943
-0.0599875
-0.0587451
-0.0572702
-0.0555684
-0.053648
-0.0515208
-0.0492014
-0.0467077
-0.0440607
-0.0412842
-0.0384048
-0.0354514
-0.0324549
-0.029447
-0.0264603
-0.0235266
-0.0206761
-0.0179371
-0.0153318
-0.0128845
-0.0105933
-0.00850196
-0.00651037
-0.00484535
-0.00289962
-0.00194096
-0.0458163
-0.0477434
-0.0489717
-0.0502278
-0.0515201
-0.05272
-0.0537791
-0.0546944
-0.0554625
-0.0560723
-0.0565113
-0.0567686
-0.0568346
-0.0567011
-0.0563613
-0.0558097
-0.0550433
-0.0540605
-0.0528621
-0.0514519
-0.0498357
-0.0480225
-0.046024
-0.0438546
-0.041532
-0.0390763
-0.0365104
-0.0338592
-0.0311499
-0.0284108
-0.0256707
-0.0229588
-0.0203024
-0.0177282
-0.0152567
-0.0129116
-0.0106914
-0.00864005
-0.00666104
-0.00497857
-0.00300171
-0.00196458
-0.0402261
-0.0420245
-0.0432231
-0.0444472
-0.0457052
-0.046886
-0.047947
-0.0488846
-0.0496948
-0.0503675
-0.0508909
-0.0512541
-0.0514479
-0.0514639
-0.0512946
-0.0509343
-0.0503791
-0.0496258
-0.0486738
-0.047525
-0.0461831
-0.0446546
-0.0429484
-0.0410763
-0.0390524
-0.0368937
-0.0346194
-0.0322511
-0.0298122
-0.0273277
-0.0248232
-0.0223247
-0.0198572
-0.0174452
-0.0151077
-0.0128677
-0.0107237
-0.00871942
-0.0067626
-0.00507235
-0.00307878
-0.00197275
-0.0351416
-0.0368179
-0.0379826
-0.0391705
-0.0403894
-0.0415445
-0.0425981
-0.0435462
-0.0443849
-0.0451046
-0.0456942
-0.0461435
-0.0464435
-0.0465856
-0.0465625
-0.0463677
-0.0459958
-0.0454443
-0.0447107
-0.0437948
-0.0426988
-0.0414269
-0.0399858
-0.0383844
-0.0366342
-0.0347489
-0.0327446
-0.0306395
-0.0284539
-0.0262093
-0.0239284
-0.0216343
-0.0193494
-0.017096
-0.0148919
-0.0127585
-0.010695
-0.00874399
-0.00681797
-0.0051292
-0.00313208
-0.00196747
-0.0305267
-0.0320879
-0.0332163
-0.0343653
-0.0355425
-0.036667
-0.0377061
-0.0386556
-0.0395115
-0.0402649
-0.0409056
-0.041424
-0.0418111
-0.0420588
-0.0421594
-0.042106
-0.0418923
-0.0415185
-0.0409771
-0.0402675
-0.0393905
-0.0383486
-0.0371464
-0.0357903
-0.0342893
-0.0326544
-0.0308986
-0.0290374
-0.0270876
-0.0250679
-0.0229981
-0.0208983
-0.0187888
-0.0166896
-0.0146168
-0.0125909
-0.0106109
-0.00871835
-0.00683069
-0.00515204
-0.00316319
-0.00195059
-0.0263487
-0.0278021
-0.028893
-0.030002
-0.031136
-0.0322268
-0.0332462
-0.03419
-0.0350542
-0.0358305
-0.0365094
-0.0370822
-0.0375402
-0.0378755
-0.0380808
-0.0381494
-0.0380761
-0.0378517
-0.0374769
-0.0369485
-0.0362654
-0.0354284
-0.0344401
-0.033305
-0.0320297
-0.0306227
-0.0290945
-0.0274575
-0.0257261
-0.023916
-0.0220441
-0.0201282
-0.0181859
-0.0162353
-0.0142911
-0.0123721
-0.0104778
-0.00864776
-0.00680489
-0.00514418
-0.00317401
-0.00192389
-0.0225776
-0.0239311
-0.0249842
-0.0260529
-0.0271435
-0.0281991
-0.0291953
-0.0301281
-0.0309933
-0.0317836
-0.0324903
-0.033105
-0.0336197
-0.0340268
-0.0343189
-0.0344893
-0.0345318
-0.0344404
-0.0342117
-0.0338422
-0.0333298
-0.0326742
-0.0318764
-0.0309392
-0.029867
-0.0286661
-0.0273449
-0.0259132
-0.0243827
-0.0227665
-0.0210791
-0.0193357
-0.0175519
-0.0157435
-0.0139239
-0.0121104
-0.0103024
-0.00853808
-0.00674518
-0.0051093
-0.00316671
-0.00188909
-0.0191868
-0.0204482
-0.0214641
-0.0224934
-0.0235413
-0.0245609
-0.0255318
-0.0264497
-0.0273107
-0.028108
-0.0288336
-0.0294799
-0.0300393
-0.0305045
-0.0308684
-0.0311243
-0.0312659
-0.0312877
-0.0311846
-0.0309529
-0.0305898
-0.0300938
-0.0294645
-0.0287032
-0.0278125
-0.0267971
-0.0256628
-0.0244175
-0.0230705
-0.0216326
-0.0201159
-0.0185334
-0.0168984
-0.015225
-0.013525
-0.0118144
-0.0100926
-0.00839571
-0.00665668
-0.00505138
-0.00314374
-0.00184789
-0.0161527
-0.0173299
-0.0183099
-0.019301
-0.0203077
-0.0212919
-0.0222363
-0.0231368
-0.0239895
-0.0247883
-0.025526
-0.0261953
-0.0267893
-0.027301
-0.0277237
-0.0280506
-0.0282757
-0.0283931
-0.0283976
-0.028285
-0.0280515
-0.0276947
-0.0272133
-0.0266073
-0.0258778
-0.0250277
-0.0240611
-0.0229838
-0.0218032
-0.0205279
-0.0191679
-0.017734
-0.0162376
-0.0146911
-0.0131049
-0.0114934
-0.00985626
-0.00822751
-0.0065449
-0.00497469
-0.00310773
-0.00180193
-0.0134546
-0.0145555
-0.0155013
-0.0164563
-0.017424
-0.0183739
-0.0192916
-0.0201733
-0.0210151
-0.0218113
-0.0225555
-0.0232409
-0.0238612
-0.0244096
-0.0248798
-0.0252652
-0.0255597
-0.0257576
-0.0258535
-0.0258426
-0.0257206
-0.0254844
-0.0251319
-0.0246618
-0.0240742
-0.0233703
-0.0225527
-0.0216257
-0.0205946
-0.0194662
-0.0182485
-0.0169506
-0.0155821
-0.0141537
-0.0126743
-0.0111573
-0.00960203
-0.00804076
-0.00641572
-0.00488375
-0.00306154
-0.00175285
-0.011075
-0.0121075
-0.0130214
-0.0139426
-0.014874
-0.0157915
-0.0166833
-0.0175456
-0.0183747
-0.0191656
-0.0199121
-0.0206082
-0.0212478
-0.0218248
-0.0223328
-0.0227658
-0.0231177
-0.0233826
-0.0235551
-0.02363
-0.0236033
-0.0234708
-0.0232295
-0.0228773
-0.0224132
-0.0218373
-0.0211509
-0.0203567
-0.0194584
-0.0184613
-0.0173717
-0.0161968
-0.0149448
-0.0136248
-0.0122445
-0.0108161
-0.00933882
-0.00784305
-0.00627529
-0.00478328
-0.00300814
-0.00170229
-0.00899956
-0.00997161
-0.0108561
-0.0117465
-0.0126447
-0.0135322
-0.0143994
-0.0152426
-0.0160585
-0.016842
-0.0175879
-0.0182904
-0.0189439
-0.0195426
-0.0200805
-0.0205517
-0.0209503
-0.0212704
-0.0215066
-0.0216536
-0.0217071
-0.0216623
-0.0215157
-0.0212644
-0.0209067
-0.0204415
-0.019869
-0.0191907
-0.018409
-0.0175277
-0.0165514
-0.0154863
-0.0143388
-0.0131168
-0.011827