/*--------------------------------*- C++ -*----------------------------------*\
  =========                 |
  \\      /  F ield         | OpenFOAM: The Open Source CFD Toolbox
   \\    /   O peration     | Website:  https://openfoam.org
    \\  /    A nd           | Version:  7
     \\/     M anipulation  |
\*---------------------------------------------------------------------------*/
FoamFile
{
    version     2.0;
    format      ascii;
    class       volScalarField;
    location    "15";
    object      p;
}
// * * * * * * * * * * * * * * * * * * * * * * * * * * * * * * * * * * * * * //

dimensions      [0 2 -2 0 0 0 0];

internalField   nonuniform List<scalar> 
16660
(
-0.208598
-0.212255
-0.213057
-0.214537
-0.215782
-0.21719
-0.218619
-0.22006
-0.221476
-0.222797
-0.224099
-0.225119
-0.226514
-0.226894
-0.208749
-0.212374
-0.213171
-0.214641
-0.215881
-0.217286
-0.218712
-0.22015
-0.221566
-0.22288
-0.224189
-0.225177
-0.226613
-0.226827
-0.209049
-0.212611
-0.213396
-0.214848
-0.216078
-0.217474
-0.218894
-0.220326
-0.221741
-0.223042
-0.224368
-0.225284
-0.226814
-0.226691
-0.209494
-0.212963
-0.213729
-0.215154
-0.216367
-0.217749
-0.219159
-0.220582
-0.221994
-0.223274
-0.224628
-0.225425
-0.227118
-0.22648
-0.210076
-0.213423
-0.214164
-0.215551
-0.216742
-0.218103
-0.219498
-0.220905
-0.222314
-0.223559
-0.224961
-0.225574
-0.227529
-0.226184
-0.210787
-0.213986
-0.214694
-0.216032
-0.217192
-0.218525
-0.219899
-0.221283
-0.222687
-0.223879
-0.225356
-0.225699
-0.22805
-0.225789
-0.211616
-0.214643
-0.215309
-0.216588
-0.217706
-0.219002
-0.220347
-0.2217
-0.223096
-0.224211
-0.225802
-0.225766
-0.228683
-0.225275
-0.212552
-0.215386
-0.216002
-0.217207
-0.218273
-0.219521
-0.220827
-0.222137
-0.223524
-0.224532
-0.22629
-0.225736
-0.229436
-0.224604
-0.213583
-0.216206
-0.21676
-0.217878
-0.21888
-0.220067
-0.221323
-0.222577
-0.223953
-0.224817
-0.226808
-0.22557
-0.230333
-0.223727
-0.214694
-0.217093
-0.217575
-0.218591
-0.219513
-0.220625
-0.221818
-0.223
-0.224367
-0.22504
-0.227351
-0.225226
-0.231355
-0.2227
-0.215876
-0.218039
-0.218435
-0.219332
-0.220159
-0.22118
-0.222298
-0.223391
-0.224748
-0.225174
-0.227903
-0.224745
-0.232101
-0.221855
-0.217114
-0.219034
-0.219331
-0.220093
-0.220807
-0.221719
-0.222746
-0.223733
-0.225088
-0.225199
-0.22836
-0.224363
-0.232659
-0.220884
-0.218399
-0.220071
-0.220255
-0.220863
-0.221445
-0.222231
-0.223151
-0.224014
-0.22538
-0.225191
-0.228615
-0.223865
-0.233245
-0.219749
-0.219722
-0.221143
-0.221199
-0.221633
-0.222064
-0.222705
-0.223502
-0.224222
-0.225513
-0.225166
-0.228793
-0.223166
-0.233799
-0.218507
-0.221076
-0.222246
-0.222156
-0.222398
-0.222656
-0.223133
-0.223791
-0.224371
-0.22556
-0.22501
-0.228892
-0.222308
-0.234202
-0.217236
-0.222454
-0.223374
-0.223123
-0.223152
-0.223217
-0.22351
-0.22401
-0.224439
-0.225528
-0.224742
-0.228862
-0.221356
-0.234326
-0.216052
-0.223856
-0.224528
-0.224097
-0.223893
-0.223744
-0.223835
-0.22416
-0.224423
-0.2254
-0.224386
-0.228651
-0.220382
-0.234001
-0.215071
-0.225281
-0.225705
-0.225077
-0.22462
-0.224237
-0.224108
-0.224243
-0.224332
-0.225171
-0.223967
-0.228211
-0.219462
-0.233045
-0.21434
-0.226732
-0.22691
-0.226066
-0.225335
-0.224698
-0.224333
-0.224264
-0.224173
-0.22484
-0.223495
-0.227503
-0.218649
-0.231326
-0.213758
-0.228215
-0.228146
-0.227067
-0.226043
-0.225134
-0.224517
-0.224231
-0.223956
-0.224413
-0.222972
-0.226507
-0.217937
-0.228827
-0.21306
-0.22974
-0.229419
-0.228085
-0.226751
-0.225552
-0.224671
-0.224153
-0.223691
-0.223899
-0.222383
-0.225223
-0.21724
-0.225675
-0.211922
-0.231319
-0.230731
-0.229136
-0.227467
-0.225965
-0.224807
-0.224045
-0.223388
-0.22331
-0.221702
-0.223669
-0.216411
-0.222078
-0.210097
-0.232966
-0.232099
-0.230225
-0.228204
-0.226385
-0.22494
-0.223921
-0.223051
-0.222652
-0.220897
-0.221866
-0.215287
-0.218229
-0.207503
-0.234698
-0.233534
-0.231362
-0.228976
-0.226828
-0.225087
-0.223796
-0.222685
-0.221923
-0.219942
-0.219823
-0.213745
-0.214228
-0.2042
-0.236536
-0.23505
-0.232564
-0.229796
-0.227311
-0.225263
-0.223682
-0.222291
-0.221112
-0.218809
-0.217539
-0.211725
-0.210069
-0.200328
-0.238502
-0.236659
-0.233846
-0.230683
-0.227851
-0.225485
-0.223589
-0.221867
-0.2202
-0.217474
-0.215005
-0.209221
-0.205656
-0.196072
-0.240619
-0.238377
-0.235226
-0.231654
-0.228467
-0.225766
-0.223523
-0.221409
-0.21917
-0.215911
-0.212226
-0.206257
-0.200859
-0.191672
-0.24291
-0.240221
-0.23672
-0.232727
-0.229176
-0.226118
-0.223483
-0.220908
-0.218004
-0.214093
-0.209217
-0.202869
-0.195703
-0.187329
-0.24539
-0.242215
-0.238347
-0.233919
-0.229992
-0.226545
-0.223467
-0.220352
-0.216689
-0.212005
-0.206
-0.199094
-0.190577
-0.182834
-0.248083
-0.244374
-0.240125
-0.235249
-0.230927
-0.227052
-0.223468
-0.219725
-0.215208
-0.209644
-0.202582
-0.194988
-0.185694
-0.177658
-0.251018
-0.246712
-0.242072
-0.236731
-0.23199
-0.227636
-0.22348
-0.219008
-0.213545
-0.20702
-0.198972
-0.190675
-0.180762
-0.172345
-0.254216
-0.249247
-0.244206
-0.238379
-0.233184
-0.228298
-0.223493
-0.218177
-0.211688
-0.204152
-0.195191
-0.1862
-0.175811
-0.16704
-0.257697
-0.251997
-0.246546
-0.240205
-0.234511
-0.229036
-0.223488
-0.217209
-0.20963
-0.201064
-0.191258
-0.181616
-0.170827
-0.161726
-0.261479
-0.254977
-0.249106
-0.242216
-0.235972
-0.229844
-0.223441
-0.216081
-0.207369
-0.197781
-0.187193
-0.176952
-0.165812
-0.156436
-0.265578
-0.258205
-0.251904
-0.244415
-0.23757
-0.230711
-0.22332
-0.214776
-0.204909
-0.194326
-0.183016
-0.172225
-0.160772
-0.151151
-0.270009
-0.261697
-0.254949
-0.246804
-0.239307
-0.231613
-0.223093
-0.213282
-0.202257
-0.190719
-0.17874
-0.167445
-0.155707
-0.14587
-0.274785
-0.265468
-0.258252
-0.249386
-0.241182
-0.232519
-0.222729
-0.211591
-0.199422
-0.186974
-0.174376
-0.162616
-0.150617
-0.14058
-0.279914
-0.269533
-0.261816
-0.252164
-0.243182
-0.233386
-0.2222
-0.209701
-0.196413
-0.183102
-0.169929
-0.157735
-0.145498
-0.135272
-0.285404
-0.273904
-0.26564
-0.255143
-0.245282
-0.234173
-0.221484
-0.20761
-0.193236
-0.17911
-0.165401
-0.152801
-0.140342
-0.129937
-0.291259
-0.278589
-0.269721
-0.258326
-0.24744
-0.234836
-0.220563
-0.205315
-0.189895
-0.175
-0.160788
-0.147805
-0.135143
-0.124565
-0.297478
-0.283588
-0.274054
-0.261705
-0.249605
-0.235336
-0.21942
-0.202816
-0.186391
-0.170771
-0.156086
-0.142741
-0.129891
-0.119147
-0.304057
-0.288898
-0.278635
-0.265258
-0.251718
-0.235636
-0.218041
-0.200108
-0.182722
-0.166418
-0.151287
-0.137599
-0.124577
-0.113672
-0.310985
-0.294502
-0.283457
-0.268944
-0.253718
-0.235702
-0.216413
-0.197188
-0.178885
-0.161934
-0.146382
-0.13237
-0.119192
-0.108133
-0.318246
-0.30038
-0.288512
-0.272701
-0.255548
-0.235503
-0.214523
-0.194049
-0.174871
-0.157311
-0.141361
-0.127043
-0.113726
-0.10252
-0.325812
-0.306499
-0.29378
-0.276454
-0.257151
-0.235008
-0.212358
-0.19068
-0.170672
-0.152537
-0.136212
-0.121609
-0.108169
-0.0968253
-0.333648
-0.312824
-0.299226
-0.280117
-0.258472
-0.23419
-0.209902
-0.187072
-0.166277
-0.147602
-0.130924
-0.116057
-0.102513
-0.0910398
-0.341703
-0.319312
-0.304797
-0.283602
-0.259458
-0.233022
-0.207139
-0.183211
-0.161672
-0.142492
-0.125486
-0.110378
-0.0967471
-0.0851562
-0.349913
-0.325917
-0.310416
-0.286823
-0.260059
-0.231476
-0.204054
-0.179083
-0.156845
-0.137194
-0.119885
-0.104561
-0.0908638
-0.0791672
-0.358202
-0.332584
-0.315984
-0.289696
-0.260225
-0.229526
-0.200626
-0.174672
-0.15178
-0.131695
-0.11411
-0.0985971
-0.0848542
-0.0730659
-0.366479
-0.339254
-0.321384
-0.292139
-0.259909
-0.227145
-0.196839
-0.169962
-0.146464
-0.125983
-0.10815
-0.0924773
-0.0787103
-0.0668461
-0.37464
-0.345857
-0.326487
-0.294075
-0.259065
-0.224306
-0.192671
-0.164936
-0.14088
-0.120043
-0.101995
-0.086193
-0.0724248
-0.060502
-0.382575
-0.352312
-0.331158
-0.29543
-0.257651
-0.220982
-0.188102
-0.159576
-0.135014
-0.113864
-0.0956339
-0.0797362
-0.0659906
-0.0540286
-0.390164
-0.358525
-0.335265
-0.296133
-0.255625
-0.217147
-0.183113
-0.153865
-0.128852
-0.107433
-0.0890576
-0.0730995
-0.0594013
-0.0474215
-0.397287
-0.364391
-0.33868
-0.296115
-0.252951
-0.212775
-0.177683
-0.147787
-0.12238
-0.10074
-0.0822577
-0.0662761
-0.052651
-0.0406769
-0.403819
-0.369791
-0.341283
-0.295312
-0.249593
-0.207841
-0.171792
-0.141325
-0.115585
-0.0937736
-0.0752262
-0.0592599
-0.0457346
-0.0337923
-0.409636
-0.374598
-0.342968
-0.293663
-0.245516
-0.202323
-0.165423
-0.134464
-0.108455
-0.0865249
-0.0679565
-0.0520456
-0.0386482
-0.0267665
-0.414619
-0.378675
-0.343641
-0.291112
-0.240692
-0.196197
-0.158556
-0.127191
-0.100979
-0.0789858
-0.0604426
-0.0446285
-0.0313888
-0.0196006
-0.418648
-0.381886
-0.343217
-0.287612
-0.235091
-0.189445
-0.151176
-0.119492
-0.0931478
-0.0711491
-0.0526794
-0.0370043
-0.0239546
-0.0122973
-0.42161
-0.384092
-0.341626
-0.28312
-0.22869
-0.182048
-0.14327
-0.111357
-0.0849531
-0.0630095
-0.0446634
-0.0291696
-0.0163432
-0.00485777
-0.423399
-0.38516
-0.338806
-0.277598
-0.221466
-0.17399
-0.134824
-0.102776
-0.0763888
-0.0545629
-0.0363921
-0.0211228
-0.00855282
0.00272856
-0.423912
-0.384966
-0.334707
-0.271018
-0.213402
-0.16526
-0.125828
-0.093743
-0.0674505
-0.0458064
-0.0278631
-0.012865
-0.000589905
0.0104934
-0.423055
-0.383399
-0.329285
-0.263357
-0.204484
-0.155845
-0.116276
-0.0842529
-0.0581358
-0.0367374
-0.0190741
-0.00439679
0.00752623
0.0184697
-0.420741
-0.380361
-0.322505
-0.254597
-0.1947
-0.145739
-0.106162
-0.0743029
-0.0484424
-0.0273541
-0.010025
0.0042838
0.0157869
0.0266211
-0.416891
-0.37577
-0.314337
-0.244729
-0.184045
-0.134939
-0.0954837
-0.0638903
-0.038367
-0.0176582
-0.000724139
0.0131681
0.0242539
0.0348379
-0.411436
-0.369559
-0.304763
-0.233747
-0.172516
-0.123443
-0.0842403
-0.0530122
-0.0279072
-0.00766093
0.00881499
0.0222272
0.0329327
0.0431475
-0.404315
-0.361674
-0.293774
-0.22165
-0.160116
-0.111253
-0.072429
-0.0416714
-0.0170753
0.00261618
0.018598
0.0314802
0.041783
0.0515713
-0.395477
-0.35208
-0.281368
-0.208447
-0.14685
-0.0983674
-0.0600504
-0.0298887
-0.00591406
0.0132051
0.0286162
0.0409266
0.0507852
0.0601142
-0.38488
-0.340753
-0.267551
-0.194149
-0.132724
-0.0847875
-0.0471278
-0.0176969
0.00561056
0.0240818
0.0388619
0.050559
0.0599298
0.0687712
-0.372495
-0.327686
-0.252338
-0.178772
-0.117744
-0.0705349
-0.0337166
-0.00505752
0.0174823
0.0352336
0.0493255
0.0603672
0.0692097
0.0775336
-0.358304
-0.312885
-0.235752
-0.162336
-0.101927
-0.055679
-0.0197665
0.00800002
0.0296874
0.0466478
0.0599958
0.0703402
0.0786173
0.0863911
-0.3423
-0.296368
-0.217822
-0.144869
-0.0853188
-0.0401958
-0.00531305
0.0214572
0.0422097
0.0583109
0.0708605
0.0804662
0.0881432
0.0953324
-0.324488
-0.278165
-0.198584
-0.126409
-0.0679648
-0.0240858
0.00962164
0.035294
0.055032
0.0702079
0.0819056
0.0907329
0.0977768
0.104345
-0.304885
-0.258319
-0.178085
-0.106997
-0.0498778
-0.0073897
0.0250132
0.0494891
0.0681352
0.0823223
0.0931161
0.101127
0.107506
0.113416
-0.283523
-0.236883
-0.156368
-0.0866753
-0.0310881
0.00985775
0.040835
0.0640193
0.0814988
0.0946356
0.104476
0.111634
0.117317
0.12253
-0.260445
-0.213951
-0.133454
-0.0654836
-0.0116344
0.0276213
0.0570577
0.0788591
0.0951002
0.107128
0.115966
0.122239
0.127196
0.131671
-0.235714
-0.189657
-0.109342
-0.0434544
0.00843807
0.0458629
0.0736491
0.0939809
0.108915
0.119779
0.12757
0.132927
0.137125
0.140818
-0.209398
-0.164084
-0.0841012
-0.0206354
0.0290799
0.0645411
0.0905746
0.109355
0.122919
0.132565
0.139268
0.143679
0.147086
0.149947
-0.181568
-0.137073
-0.0580537
0.0028953
0.0502399
0.0836118
0.107797
0.12495
0.137084
0.145464
0.151038
0.154479
0.157061
0.159032
-0.152314
-0.108641
-0.0313644
0.0270481
0.0718648
0.103029
0.125278
0.140734
0.151381
0.158449
0.162859
0.165311
0.16704
0.168057
-0.121751
-0.079001
-0.00397966
0.0517429
0.093897
0.122745
0.142975
0.15667
0.165782
0.171496
0.174709
0.17616
0.177012
0.176996
-0.0899725
-0.0483154
0.0240702
0.0769044
0.116276
0.142708
0.160847
0.172723
0.180254
0.184575
0.186567
0.187019
0.18695
0.185742
-0.0569612
-0.0168741
0.0527074
0.102459
0.138937
0.162867
0.178849
0.188856
0.194766
0.197661
0.198419
0.197881
0.196781
0.194012
-0.0229785
0.0152838
0.0818391
0.128331
0.161817
0.183168
0.196935
0.20503
0.209284
0.210728
0.210253
0.208728
0.206389
0.201589
0.0118433
0.048056
0.111366
0.154442
0.184848
0.203554
0.215057
0.221204
0.223774
0.223749
0.22205
0.219503
0.215697
0.209021
0.0473705
0.0813196
0.141185
0.180709
0.207962
0.223967
0.233168
0.237337
0.2382
0.236699
0.233775
0.230117
0.224716
0.217751
0.0834573
0.114946
0.17119
0.20705
0.231088
0.244351
0.251219
0.253387
0.252529
0.249548
0.245383
0.240538
0.233794
0.226809
0.119953
0.148803
0.201272
0.23338
0.254156
0.264645
0.269158
0.269313
0.266726
0.262265
0.256842
0.250791
0.242929
0.235749
0.156703
0.182758
0.231324
0.25961
0.277093
0.284788
0.286936
0.285071
0.280755
0.274817
0.268123
0.26088
0.252041
0.244512
0.193552
0.216675
0.261236
0.285653
0.299827
0.304721
0.304502
0.300619
0.294579
0.28717
0.279204
0.270796
0.261054
0.253033
0.230342
0.250419
0.290898
0.311423
0.322285
0.324383
0.321804
0.315914
0.308162
0.299293
0.290061
0.280518
0.269913
0.261304
0.266915
0.283855
0.320202
0.33683
0.344395
0.343713
0.338793
0.330913
0.321467
0.311154
0.30067
0.290022
0.278578
0.269318
0.303116
0.316847
0.349039
0.361787
0.366083
0.362651
0.355417
0.345573
0.334459
0.322723
0.311006
0.299284
0.287018
0.277068
0.338787
0.349262
0.377302
0.386209
0.387279
0.381137
0.371626
0.359853
0.347101
0.333968
0.321044
0.308278
0.295208
0.284546
0.373776
0.380968
0.404888
0.410009
0.407913
0.399113
0.387372
0.373711
0.359359
0.344861
0.330758
0.31698
0.303127
0.291741
0.40793
0.411839
0.431692
0.433106
0.427915
0.416521
0.402606
0.387106
0.371197
0.355373
0.340125
0.325367
0.310753
0.298643
0.441101
0.441749
0.457617
0.455416
0.447218
0.433306
0.417281
0.4
0.382582
0.365474
0.34912
0.333418
0.318068
0.305241
0.473145
0.470579
0.482564
0.476862
0.465757
0.449413
0.431352
0.412353
0.393482
0.375137
0.357718
0.341112
0.325055
0.311521
0.503922
0.498213
0.50644
0.497368
0.483469
0.464789
0.444775
0.424129
0.403866
0.384336
0.365898
0.348429
0.331696
0.317473
0.533298
0.524539
0.529157
0.51686
0.500293
0.479384
0.457508
0.435291
0.413702
0.393045
0.373638
0.35535
0.337975
0.323085
0.561146
0.549453
0.550628
0.53527
0.516172
0.493151
0.46951
0.445807
0.422964
0.40124
0.380916
0.361856
0.343875
0.328345
0.587345
0.572854
0.570775
0.552531
0.531052
0.506043
0.480744
0.455644
0.431623
0.408897
0.387714
0.367932
0.349383
0.333243
0.611781
0.59465
0.589521
0.568582
0.544881
0.518019
0.491173
0.464772
0.439654
0.415996
0.394013
0.37356
0.354485
0.337769
0.634348
0.614752
0.606796
0.583365
0.557611
0.529038
0.500764
0.473163
0.447033
0.422516
0.399795
0.378726
0.359166
0.341913
0.654948
0.633082
0.622535
0.596826
0.569199
0.539063
0.509488
0.480792
0.453739
0.428438
0.405046
0.383416
0.363415
0.345667
0.673491
0.649564
0.636679
0.608919
0.579604
0.548062
0.517315
0.487634
0.459751
0.433746
0.40975
0.387617
0.36722
0.349023
0.689898
0.664135
0.649175
0.619598
0.58879
0.556005
0.524221
0.493668
0.465052
0.438424
0.413894
0.391318
0.370572
0.351975
0.704097
0.676735
0.659976
0.628826
0.596725
0.562864
0.530182
0.498877
0.469626
0.442459
0.417468
0.394509
0.373461
0.354515
0.716027
0.687314
0.669041
0.636569
0.603382
0.568616
0.535182
0.503243
0.473459
0.44584
0.420462
0.397182
0.375881
0.356641
0.725635
0.695831
0.676336
0.642799
0.608737
0.573243
0.539201
0.506753
0.47654
0.448557
0.422866
0.399329
0.377824
0.358345
0.732881
0.70225
0.681834
0.647493
0.612772
0.576728
0.542229
0.509396
0.47886
0.450602
0.424676
0.400944
0.379286
0.359625
0.737733
0.706548
0.685513
0.650634
0.615471
0.579059
0.544254
0.511164
0.480411
0.451969
0.425886
0.402024
0.380263
0.360479
0.74017
0.708705
0.687361
0.652211
0.616827
0.580229
0.54527
0.512051
0.481189
0.452655
0.426493
0.402565
0.380755
0.360921
0.740181
0.708715
0.687369
0.652218
0.616832
0.580234
0.545274
0.512053
0.481191
0.452656
0.426494
0.402567
0.380757
0.360927
0.737766
0.706576
0.685538
0.650654
0.615488
0.579073
0.544264
0.511171
0.480416
0.451972
0.425888
0.402025
0.380264
0.36048
0.732935
0.702296
0.681874
0.647526
0.612799
0.576749
0.542245
0.509408
0.478868
0.450606
0.424678
0.400944
0.379285
0.35962
0.725709
0.695894
0.676391
0.642844
0.608774
0.573271
0.539223
0.506768
0.476549
0.448561
0.422867
0.399327
0.37782
0.358336
0.71612
0.687393
0.669109
0.636625
0.603428
0.568651
0.535207
0.50326
0.473469
0.445844
0.420461
0.397178
0.375874
0.356627
0.704207
0.676829
0.660057
0.628892
0.596778
0.562904
0.530211
0.498895
0.469635
0.442461
0.417465
0.394503
0.373452
0.354498
0.690024
0.664242
0.649267
0.619673
0.588849
0.556048
0.524251
0.493686
0.46506
0.438425
0.413889
0.39131
0.370561
0.351954
0.673631
0.649684
0.63678
0.609
0.579667
0.548109
0.517346
0.487651
0.459758
0.433745
0.409743
0.387607
0.367207
0.349
0.655099
0.633211
0.622644
0.596913
0.569266
0.539111
0.509519
0.480809
0.453744
0.428435
0.405037
0.383405
0.363401
0.345641
0.634509
0.61489
0.606911
0.583455
0.55768
0.529086
0.500795
0.473179
0.447037
0.422512
0.399786
0.378715
0.359152
0.341884
0.611949
0.594794
0.589641
0.568675
0.544951
0.518067
0.491203
0.464787
0.439657
0.415991
0.394003
0.373549
0.354471
0.337738
0.587518
0.573003
0.570898
0.552626
0.531122
0.506091
0.480772
0.455658
0.431625
0.408892
0.387704
0.367922
0.349371
0.33321
0.561322
0.549604
0.550753
0.535366
0.516242
0.493198
0.469538
0.44582
0.422966
0.401235
0.380907
0.361847
0.343863
0.328311
0.533475
0.524691
0.529282
0.516955
0.500362
0.47943
0.457535
0.435304
0.413704
0.39304
0.373629
0.355342
0.337964
0.323049
0.504097
0.498364
0.506564
0.497462
0.483536
0.464833
0.444801
0.424141
0.403868
0.384332
0.36589
0.348422
0.331686
0.317437
0.473317
0.470729
0.482686
0.476954
0.465823
0.449456
0.431378
0.412365
0.393485
0.375134
0.357712
0.341107
0.325047
0.311484
0.44127
0.441896
0.457736
0.455506
0.447282
0.433348
0.417306
0.400012
0.382586
0.365471
0.349114
0.333415
0.318061
0.305202
0.408093
0.411982
0.431809
0.433193
0.427977
0.416562
0.40263
0.387119
0.371201
0.355372
0.340121
0.325365
0.310748
0.298604
0.373932
0.381106
0.405
0.410093
0.407973
0.399153
0.387396
0.373724
0.359364
0.344862
0.330756
0.316979
0.303124
0.291702
0.338935
0.349393
0.37741
0.386289
0.387337
0.381176
0.37165
0.359867
0.347108
0.33397
0.321043
0.308279
0.295208
0.284507
0.303254
0.316972
0.349141
0.361864
0.366139
0.362688
0.355441
0.345587
0.334467
0.322726
0.311006
0.299287
0.28702
0.277029
0.267044
0.283972
0.320299
0.336903
0.344448
0.34375
0.338817
0.330928
0.321477
0.311159
0.300672
0.290027
0.278583
0.26928
0.230461
0.250528
0.290989
0.311492
0.322336
0.324419
0.321828
0.31593
0.308172
0.299299
0.290065
0.280525
0.269922
0.261269
0.193661
0.216776
0.261322
0.285719
0.299876
0.304756
0.304526
0.300636
0.294591
0.287178
0.27921
0.270804
0.261067
0.253001
0.156801
0.182851
0.231404
0.259671
0.27714
0.284822
0.28696
0.285088
0.280768
0.274826
0.26813
0.260891
0.252061
0.244487
0.12004
0.148888
0.201346
0.233437
0.2542
0.264678
0.269182
0.269331
0.26674
0.262277
0.25685
0.250802
0.242955
0.235739
0.083534
0.115022
0.171257
0.207104
0.23113
0.244383
0.251243
0.253406
0.252544
0.249561
0.245393
0.24055
0.233827
0.226829
0.0474367
0.0813871
0.141246
0.180759
0.208002
0.223999
0.233193
0.237356
0.238216
0.236714
0.233788
0.230128
0.224751
0.21782
0.0118992
0.0481151
0.111421
0.154488
0.184886
0.203584
0.215081
0.221223
0.22379
0.223765
0.222065
0.219515
0.215731
0.209132
-0.0229327
0.0153347
0.0818887
0.128374
0.161853
0.183197
0.196959
0.20505
0.209301
0.210744
0.210269
0.208742
0.206417
0.201677
-0.0569249
-0.0168313
0.0527513
0.102498
0.138971
0.162896
0.178873
0.188876
0.194784
0.197678
0.198436
0.197896
0.196803
0.194068
-0.0899454
-0.0482805
0.0241085
0.0769396
0.116307
0.142735
0.16087
0.172743
0.180272
0.184592
0.186584
0.187035
0.186968
0.18578
-0.121733
-0.0789735
-0.00394683
0.0517745
0.0939263
0.122771
0.142998
0.15669
0.1658
0.171512
0.174726
0.176177
0.177029
0.177027
-0.152304
-0.108621
-0.0313368
0.0270763
0.0718919
0.103054
0.1253
0.140753
0.151399
0.158466
0.162876
0.165327
0.167057
0.168084
-0.181565
-0.13706
-0.0580311
0.00292002
0.0502649
0.0836353
0.107818
0.124969
0.137101
0.14548
0.151054
0.154495
0.157077
0.159055
-0.209402
-0.164078
-0.0840834
-0.020614
0.0291027
0.0645632
0.090595
0.109374
0.122936
0.132581
0.139283
0.143694
0.1471
0.149966
-0.235725
-0.189656
-0.10933
-0.0434364
0.00845869
0.0458836
0.0736686
0.0939987
0.108932
0.119794
0.127585
0.132941
0.137138
0.140835
-0.260462
-0.213956
-0.133446
-0.0654687
-0.011616
0.0276405
0.0570762
0.0788761
0.0951158
0.107143
0.115981
0.122253
0.127208
0.131686
-0.283545
-0.236894
-0.156363
-0.0866635
-0.0310718
0.00987548
0.0408524
0.0640355
0.0815137
0.0946496
0.104489
0.111647
0.117329
0.122544
-0.304913
-0.258334
-0.178085
-0.106988
-0.0498637
-0.0073735
0.0250294
0.0495045
0.0681494
0.0823355
0.0931289
0.101139
0.107517
0.113428
-0.32452
-0.278186
-0.198588
-0.126403
-0.0679527
-0.0240711
0.00963673
0.0353084
0.0550454
0.0702205
0.0819177
0.0907445
0.0977874
0.104356
-0.342336
-0.296392
-0.217829
-0.144866
-0.0853088
-0.0401827
-0.00529915
0.0214706
0.0422222
0.0583227
0.0708718
0.0804772
0.0881533
0.0953424
-0.358344
-0.312913
-0.235763
-0.162335
-0.101919
-0.0556675
-0.0197539
0.00801241
0.0296991
0.0466588
0.0600064
0.0703505
0.0786269
0.0864004
-0.372538
-0.327717
-0.252352
-0.178774
-0.117738
-0.0705249
-0.0337052
-0.00504615
0.0174931
0.0352438
0.0493354
0.060377
0.0692189
0.0775422
-0.384925
-0.340787
-0.267568
-0.194154
-0.13272
-0.0847791
-0.0471176
-0.0176866
0.00562048
0.0240913
0.0388712
0.0505682
0.0599385
0.0687792
-0.395524
-0.352117
-0.281387
-0.208454
-0.146848
-0.0983605
-0.0600415
-0.0298794
-0.00590503
0.0132138
0.0286248
0.0409352
0.0507935
0.0601217
-0.404364
-0.361713
-0.293796
-0.221659
-0.160116
-0.111247
-0.0724212
-0.0416631
-0.0170672
0.00262415
0.0186059
0.0314883
0.0417909
0.0515783
-0.411486
-0.369599
-0.304788
-0.233758
-0.172518
-0.123439
-0.0842338
-0.0530049
-0.0278999
-0.00765373
0.00882225
0.0222347
0.0329402
0.0431541
-0.416942
-0.375812
-0.314363
-0.244742
-0.184048
-0.134936
-0.0954784
-0.063884
-0.0383605
-0.0176517
-0.000717498
0.013175
0.0242609
0.0348441
-0.420793
-0.380404
-0.322533
-0.254612
-0.194705
-0.145738
-0.106158
-0.0742976
-0.0484368
-0.0273484
-0.0100189
0.00429024
0.0157934
0.026627
-0.423107
-0.383443
-0.329315
-0.263373
-0.20449
-0.155845
-0.116273
-0.0842486
-0.058131
-0.0367324
-0.0190687
-0.00439087
0.00753236
0.0184753
-0.423964
-0.385011
-0.334738
-0.271036
-0.21341
-0.165261
-0.125826
-0.0937397
-0.0674466
-0.045802
-0.0278583
-0.0128596
-0.000584203
0.0104986
-0.423451
-0.385204
-0.338838
-0.277617
-0.221475
-0.173993
-0.134823
-0.102774
-0.0763856
-0.0545593
-0.0363879
-0.0211179
-0.00854754
0.00273341
-0.421662
-0.384136
-0.341659
-0.28314
-0.2287
-0.182052
-0.14327
-0.111355
-0.0849507
-0.0630065
-0.0446598
-0.0291652
-0.0163383
-0.00485325
-0.418699
-0.38193
-0.343251
-0.287634
-0.235103
-0.18945
-0.151178
-0.119491
-0.0931462
-0.0711468
-0.0526764
-0.0370004
-0.0239502
-0.0122931
-0.414669
-0.378719
-0.343675
-0.291135
-0.240705
-0.196203
-0.158558
-0.127191
-0.100978
-0.0789841
-0.0604401
-0.0446251
-0.0313848
-0.0195967
-0.409685
-0.37464
-0.343003
-0.293686
-0.24553
-0.20233
-0.165426
-0.134465
-0.108455
-0.0865239
-0.0679546
-0.0520427
-0.0386446
-0.0267629
-0.403867
-0.369833
-0.341318
-0.295336
-0.249608
-0.20785
-0.171797
-0.141327
-0.115586
-0.0937732
-0.0752249
-0.0592575
-0.0457315
-0.033789
-0.397333
-0.364432
-0.338714
-0.29614
-0.252967
-0.212784
-0.177688
-0.14779
-0.122382
-0.10074
-0.0822569
-0.0662742
-0.0526483
-0.040674
-0.390209
-0.358565
-0.3353
-0.296158
-0.255642
-0.217157
-0.183119
-0.153869
-0.128854
-0.107434
-0.0890574
-0.0730982
-0.059399
-0.0474188
-0.382618
-0.35235
-0.331192
-0.295456
-0.257668
-0.220994
-0.188109
-0.15958
-0.135017
-0.113865
-0.0956342
-0.0797355
-0.0659887
-0.0540262
-0.374682
-0.345894
-0.32652
-0.294101
-0.259083
-0.224318
-0.192679
-0.164941
-0.140883
-0.120045
-0.101996
-0.0861928
-0.0724234
-0.0605
-0.366519
-0.33929
-0.321416
-0.292165
-0.259928
-0.227158
-0.196847
-0.169968
-0.146467
-0.125985
-0.108152
-0.0924776
-0.0787094
-0.0668444
-0.358241
-0.332619
-0.316016
-0.289722
-0.260245
-0.22954
-0.200636
-0.174679
-0.151785
-0.131698
-0.114112
-0.0985979
-0.0848537
-0.0730645
-0.349951
-0.32595
-0.310447
-0.286849
-0.260079
-0.231491
-0.204064
-0.17909
-0.15685
-0.137198
-0.119887
-0.104562
-0.0908637
-0.0791662
-0.341739
-0.319345
-0.304827
-0.283628
-0.259479
-0.233037
-0.20715
-0.183219
-0.161678
-0.142496
-0.125489
-0.11038
-0.0967475
-0.0851556
-0.333682
-0.312856
-0.299255
-0.280142
-0.258493
-0.234206
-0.209914
-0.187081
-0.166284
-0.147607
-0.130928
-0.11606
-0.102513
-0.0910395
-0.325845
-0.30653
-0.293808
-0.276479
-0.257172
-0.235025
-0.212371
-0.19069
-0.17068
-0.152543
-0.136216
-0.121612
-0.10817
-0.0968253
-0.318278
-0.300409
-0.28854
-0.272726
-0.255569
-0.23552
-0.214537
-0.194059
-0.17488
-0.157318
-0.141366
-0.127047
-0.113727
-0.102521
-0.311016
-0.294531
-0.283484
-0.268968
-0.25374
-0.23572
-0.216428
-0.1972
-0.178894
-0.161942
-0.146388
-0.132374
-0.119194
-0.108134
-0.304086
-0.288925
-0.278661
-0.265282
-0.251739
-0.235655
-0.218056
-0.200121
-0.182732
-0.166426
-0.151294
-0.137604
-0.12458
-0.113674
-0.297506
-0.283615
-0.274079
-0.261728
-0.249626
-0.235355
-0.219436
-0.202829
-0.186402
-0.17078
-0.156094
-0.142747
-0.129894
-0.119148
-0.291286
-0.278615
-0.269746
-0.258349
-0.247462
-0.234856
-0.22058
-0.205329
-0.189907
-0.17501
-0.160796
-0.147812
-0.135147
-0.124567
-0.285431
-0.27393
-0.265664
-0.255166
-0.245303
-0.234193
-0.221502
-0.207625
-0.193249
-0.179121
-0.16541
-0.152808
-0.140347
-0.12994
-0.27994
-0.269558
-0.261839
-0.252186
-0.243203
-0.233406
-0.222218
-0.209718
-0.196427
-0.183114
-0.169939
-0.157743
-0.145503
-0.135275
-0.27481
-0.265492
-0.258275
-0.249408
-0.241203
-0.232539
-0.222748
-0.211609
-0.199438
-0.186987
-0.174387
-0.162624
-0.150624
-0.140583
-0.270034
-0.26172
-0.254972
-0.246826
-0.239328
-0.231634
-0.223113
-0.2133
-0.202274
-0.190733
-0.178752
-0.167455
-0.155714
-0.145874
-0.265602
-0.258228
-0.251926
-0.244436
-0.237591
-0.230731
-0.22334
-0.214795
-0.204926
-0.194342
-0.183029
-0.172236
-0.16078
-0.151156
-0.261502
-0.255
-0.249128
-0.242237
-0.235993
-0.229865
-0.223462
-0.216101
-0.207388
-0.197798
-0.187208
-0.176964
-0.165821
-0.156442
-0.25772
-0.252019
-0.246567
-0.240226
-0.234532
-0.229057
-0.22351
-0.21723
-0.20965
-0.201083
-0.191274
-0.18163
-0.170837
-0.161733
-0.254239
-0.249269
-0.244228
-0.2384
-0.233205
-0.22832
-0.223515
-0.2182
-0.21171
-0.204172
-0.195209
-0.186215
-0.175822
-0.167047
-0.251041
-0.246734
-0.242093
-0.236751
-0.232011
-0.227658
-0.223503
-0.219031
-0.213568
-0.207042
-0.198992
-0.190691
-0.180774
-0.172353
-0.248105
-0.244395
-0.240146
-0.235269
-0.230948
-0.227074
-0.223491
-0.219749
-0.215232
-0.209668
-0.202603
-0.195006
-0.185707
-0.177666
-0.245411
-0.242236
-0.238368
-0.23394
-0.230013
-0.226568
-0.22349
-0.220376
-0.216714
-0.21203
-0.206023
-0.199114
-0.190593
-0.182844
-0.242932
-0.240241
-0.236741
-0.232747
-0.229197
-0.22614
-0.223507
-0.220933
-0.218031
-0.21412
-0.209242
-0.202891
-0.19572
-0.187341
-0.24064
-0.238398
-0.235246
-0.231675
-0.228489
-0.225789
-0.223548
-0.221435
-0.219197
-0.215939
-0.212252
-0.206281
-0.200879
-0.191686
-0.238522
-0.236679
-0.233867
-0.230704
-0.227872
-0.225508
-0.223614
-0.221894
-0.220229
-0.217504
-0.215034
-0.209247
-0.205678
-0.196087
-0.236557
-0.23507
-0.232584
-0.229817
-0.227332
-0.225286
-0.223707
-0.222318
-0.221142
-0.21884
-0.217569
-0.211753
-0.210093
-0.200345
-0.234718
-0.233554
-0.231382
-0.228996
-0.226849
-0.22511
-0.223821
-0.222713
-0.221954
-0.219973
-0.219855
-0.213775
-0.214253
-0.204219
-0.232985
-0.232118
-0.230244
-0.228224
-0.226406
-0.224963
-0.223946
-0.223079
-0.222683
-0.22093
-0.221899
-0.215319
-0.218256
-0.207525
-0.231338
-0.23075
-0.229155
-0.227487
-0.225986
-0.22483
-0.22407
-0.223416
-0.223341
-0.221735
-0.223703
-0.216445
-0.222107
-0.210121
-0.229759
-0.229437
-0.228104
-0.22677
-0.225573
-0.224694
-0.224179
-0.22372
-0.22393
-0.222417
-0.225258
-0.217275
-0.225706
-0.211948
-0.228233
-0.228163
-0.227085
-0.226062
-0.225154
-0.22454
-0.224256
-0.223984
-0.224444
-0.223006
-0.226542
-0.217972
-0.22886
-0.213088
-0.226749
-0.226927
-0.226084
-0.225354
-0.224718
-0.224355
-0.224289
-0.2242
-0.22487
-0.223528
-0.227539
-0.218685
-0.23136
-0.213787
-0.225298
-0.225722
-0.225094
-0.224638
-0.224256
-0.224129
-0.224267
-0.224359
-0.225201
-0.224
-0.228246
-0.219498
-0.23308
-0.21437
-0.223872
-0.224544
-0.224113
-0.22391
-0.223763
-0.223856
-0.224183
-0.22445
-0.22543
-0.224418
-0.228686
-0.220417
-0.234036
-0.2151
-0.22247
-0.22339
-0.223139
-0.223169
-0.223236
-0.22353
-0.224033
-0.224464
-0.225557
-0.224773
-0.228897
-0.22139
-0.234361
-0.216081
-0.22109
-0.22226
-0.222171
-0.222414
-0.222674
-0.223152
-0.223813
-0.224396
-0.225587
-0.225041
-0.228926
-0.222342
-0.234237
-0.217265
-0.219736
-0.221157
-0.221213
-0.221648
-0.22208
-0.222723
-0.223523
-0.224246
-0.225539
-0.225195
-0.228825
-0.223198
-0.233833
-0.218534
-0.218412
-0.220084
-0.220269
-0.220877
-0.22146
-0.222249
-0.223171
-0.224036
-0.225405
-0.225219
-0.228646
-0.223896
-0.233277
-0.219776
-0.217126
-0.219046
-0.219344
-0.220106
-0.220821
-0.221736
-0.222765
-0.223754
-0.225112
-0.225225
-0.228389
-0.224393
-0.23269
-0.220909
-0.215887
-0.21805
-0.218447
-0.219345
-0.220173
-0.221195
-0.222315
-0.223411
-0.22477
-0.225199
-0.22793
-0.224772
-0.23213
-0.221878
-0.214705
-0.217104
-0.217585
-0.218602
-0.219525
-0.220639
-0.221834
-0.223019
-0.224387
-0.225063
-0.227375
-0.225251
-0.23138
-0.222722
-0.213592
-0.216215
-0.21677
-0.217889
-0.218891
-0.220079
-0.221337
-0.222593
-0.223972
-0.224837
-0.226831
-0.225593
-0.230356
-0.223747
-0.21256
-0.215394
-0.21601
-0.217216
-0.218283
-0.219532
-0.22084
-0.222152
-0.22354
-0.224551
-0.22631