/*--------------------------------*- C++ -*----------------------------------*\
  =========                 |
  \\      /  F ield         | OpenFOAM: The Open Source CFD Toolbox
   \\    /   O peration     | Website:  https://openfoam.org
    \\  /    A nd           | Version:  7
     \\/     M anipulation  |
\*---------------------------------------------------------------------------*/
FoamFile
{
    version     2.0;
    format      ascii;
    class       surfaceScalarField;
    location    "15";
    object      phi;
}
// * * * * * * * * * * * * * * * * * * * * * * * * * * * * * * * * * * * * * //

dimensions      [0 3 -1 0 0 0 0];

internalField   nonuniform List<scalar> 
32949
(
-1.48149e-05
1.47855e-05
2.93512e-08
-4.73342e-05
3.24696e-05
4.96534e-08
-9.21237e-05
4.47397e-05
4.98402e-08
-0.00014552
5.33565e-05
4.00851e-08
-0.0002056
6.0054e-05
2.5436e-08
-0.000271458
6.5852e-05
6.8406e-09
-0.000342881
7.14395e-05
-1.718e-08
-0.000419987
7.71556e-05
-4.89866e-08
-0.000503111
8.32145e-05
-9.09996e-08
-0.000592475
8.951e-05
-1.45493e-07
-0.000688969
9.67074e-05
-2.14184e-07
-0.000792111
0.000103441
-2.98487e-07
-0.000906524
0.00011481
-3.97339e-07
0.0001217
-5.11279e-07
-0.00102771
-1.46549e-05
2.94404e-05
-4.6858e-05
6.46727e-05
-9.1206e-05
8.90877e-05
-0.000144033
0.000106184
-0.000203384
0.000119405
-0.000268307
0.000130775
-0.000338525
0.000141657
-0.000414078
0.000152709
-0.000495208
0.000164345
-0.00058199
0.000176292
-0.000675214
0.00018993
-0.000773902
0.00020213
-0.000882928
0.000223836
0.000234912
-0.00099614
-1.43392e-05
4.37796e-05
-4.59167e-05
9.62502e-05
-8.93898e-05
0.000132561
-0.000141088
0.000157882
-0.000198994
0.000177311
-0.000262063
0.000193844
-0.000329893
0.000209487
-0.000402372
0.000225188
-0.000479565
0.000241537
-0.000561254
0.000257982
-0.000648058
0.000276734
-0.000738006
0.000292078
-0.000836552
0.000322382
0.000332604
-0.000934245
-1.38763e-05
5.76559e-05
-4.45322e-05
0.000126906
-8.6713e-05
0.000174742
-0.000136741
0.000207909
-0.000192509
0.00023308
-0.000252835
0.00025417
-0.000317139
0.000273791
-0.000385086
0.000293134
-0.000456486
0.000312938
-0.000530703
0.000332198
-0.000608158
0.00035419
-0.000685388
0.000369308
-0.000768893
0.000405887
0.000408048
-0.000844336
-1.32784e-05
7.09343e-05
-4.27364e-05
0.000156364
-8.32306e-05
0.000215236
-0.000131073
0.000255752
-0.000184044
0.00028605
-0.000240784
0.00031091
-0.000300485
0.000333492
-0.000362525
0.000355174
-0.000426406
0.000376819
-0.000490945
0.000396737
-0.000556414
0.000419659
-0.00061736
0.000430254
-0.000681935
0.000470462
0.00045561
-0.000729497
-1.25612e-05
8.34955e-05
-4.05705e-05
0.000184373
-7.90138e-05
0.000253679
-0.000124192
0.00030093
-0.000173748
0.000335607
-0.000226114
0.000363275
-0.000280209
0.000387587
-0.000335073
0.000410039
-0.000389853
0.000431598
-0.000442715
0.000449599
-0.000493876
0.000470819
-0.000535435
0.000471813
-0.000577862
0.00051289
0.000470919
-0.000593172
-1.17437e-05
9.52392e-05
-3.80835e-05
0.000210713
-7.41476e-05
0.000289743
-0.000116223
0.000343005
-0.000161797
0.000381181
-0.000209063
0.000410542
-0.000256635
0.000435159
-0.000303169
0.000456572
-0.000347421
0.000475851
-0.000386813
0.000488991
-0.000421629
0.000505635
-0.000441183
0.000491367
-0.000458705
0.000530412
0.000450911
-0.000438697
-1.0847e-05
0.000106086
-3.5331e-05
0.000235197
-6.87283e-05
0.000323141
-0.000107307
0.000381584
-0.000148387
0.00042226
-0.000189898
0.000452054
-0.000230118
0.000475379
-0.00026728
0.000493734
-0.000299727
0.000508298
-0.000324053
0.000513317
-0.000340679
0.000522261
-0.000336097
0.000486784
-0.000325974
0.000520289
0.000393806
-0.000268869
-9.89401e-06
0.00011598
-3.23736e-05
0.000257677
-6.28606e-05
0.000353628
-9.76006e-05
0.000416324
-0.00013373
0.00045839
-0.0001689
0.000487224
-0.000201022
0.000507501
-0.000227877
0.000520589
-0.000247364
0.000527786
-0.000255203
0.000521156
-0.000251829
0.000518887
-0.000221523
0.000456479
-0.000180169
0.000478934
0.000299815
-8.61772e-05
-8.90887e-06
0.000124889
-2.92745e-05
0.000278042
-5.66544e-05
0.000381008
-8.72633e-05
0.000446933
-0.000118045
0.000489172
-0.000146352
0.000515531
-0.000169708
0.000530856
-0.000185406
0.000536287
-0.000190859
0.000533238
-0.000180933
0.00051123
-0.000155511
0.000493465
-9.89971e-05
0.000399965
-1.81817e-05
0.000398119
0.000169912
0.000111721
-7.9158e-06
0.000132805
-2.6098e-05
0.000296225
-5.02208e-05
0.00040513
-7.64571e-05
0.00047317
-0.000101546
0.00051426
-0.000122526
0.000536511
-0.000136502
0.000544833
-0.000140251
0.000540036
-0.00013062
0.000523608
-0.000101829
0.000482438
-5.11353e-05
0.000442772
3.11904e-05
0.000317639
0.000145244
0.000284065
-1.10638e-05
0.000326219
-6.93855e-06
0.000139743
-2.29069e-05
0.000312193
-4.36685e-05
0.000425892
-6.53378e-05
0.000494839
-8.44362e-05
0.000533359
-9.76671e-05
0.000549741
-0.000101683
0.000548849
-9.26878e-05
0.00053104
-6.68211e-05
0.000497741
-1.89212e-05
0.000434538
5.91276e-05
0.000364723
0.000176817
0.00019995
0.00032421
0.000136672
-0.000245015
0.000558162
-5.99953e-06
0.000145743
-1.97607e-05
0.000325954
-3.7099e-05
0.00044323
-5.40484e-05
0.000511788
-6.68945e-05
0.000546205
-7.19783e-05
0.000554825
-6.54549e-05
0.000542325
-4.28958e-05
0.000508481
1.47465e-06
0.000453371
7.09918e-05
0.000365021
0.000175676
0.000260039
0.000330937
4.46885e-05
0.000519655
-5.20463e-05
-0.000536841
0.00081148
-5.11901e-06
0.000150862
-1.67126e-05
0.000337548
-3.06026e-05
0.00045712
-4.27121e-05
0.000523898
-4.90644e-05
0.000552557
-4.55994e-05
0.00055136
-2.79074e-05
0.000524633
8.96025e-06
0.000471614
7.14954e-05
0.000390835
0.000166216
0.000270301
0.00030198
0.000124275
0.000496689
-0.000150021
0.000733651
-0.000289008
-0.000892549
0.00108936
-4.31434e-06
0.000155176
-1.38078e-05
0.000347041
-2.42536e-05
0.000467566
-3.14237e-05
0.000531068
-3.10416e-05
0.000552175
-1.85904e-05
0.000538909
1.10152e-05
0.000495028
6.36625e-05
0.000418966
0.000146683
0.000307815
0.000267787
0.000149197
0.000439264
-4.72023e-05
0.000676426
-0.000387182
0.000968721
-0.000581304
-0.00131738
0.00139355
-3.59925e-06
0.000158776
-1.10808e-05
0.000354523
-1.81055e-05
0.000474591
-2.02422e-05
0.000533204
-1.28613e-05
0.000544794
9.08908e-06
0.000516959
5.1461e-05
0.000452656
0.000121188
0.00034924
0.000227146
0.000201856
0.000377403
-1.05957e-06
0.000589479
-0.000259278
0.000872783
-0.000670486
0.001227
-0.000935517
-0.00181345
0.00172306
-2.98315e-06
0.000161759
-8.55344e-06
0.000360093
-1.2187e-05
0.000478224
-9.18274e-06
0.0005302
5.51469e-06
0.000530097
3.76059e-05
0.000484868
9.38658e-05
0.000396396
0.000182417
0.000260688
0.000314094
7.01789e-05
0.000497101
-0.000184066
0.000754638
-0.000516816
0.00108828
-0.00100413
0.00150938
-0.00135662
-0.00237712
0.00207306
-2.47059e-06
0.000164229
-6.23278e-06
0.000363855
-6.49729e-06
0.000478489
1.79224e-06
0.000521911
2.42092e-05
0.00050768
6.72467e-05
0.00044183
0.000138805
0.000324838
0.000248386
0.000151107
0.000409041
-9.04761e-05
0.000629228
-0.000404253
0.000936415
-0.000824003
0.00132439
-0.00139211
0.00181427
-0.0018465
-0.0029972
0.00243435
-2.06076e-06
0.00016629
-4.1094e-06
0.000365904
-1.00318e-06
0.000475382
1.27711e-05
0.000508136
4.34395e-05
0.000477011
9.84548e-05
0.000386815
0.000187073
0.000236219
0.000320387
1.77932e-05
0.000513646
-0.000283736
0.000776062
-0.000666668
0.00113572
-0.00118366
0.00158039
-0.00183678
0.00213613
-0.00240223
-0.00365502
0.00279395
-1.74717e-06
0.000168037
-2.15483e-06
0.000366312
4.36489e-06
0.000468863
2.39156e-05
0.000488586
6.35246e-05
0.000437402
0.000131821
0.000318518
0.000239657
0.000128384
0.000399899
-0.000142449
0.000629559
-0.000513396
0.000939166
-0.000976275
0.00135214
-0.00159663
0.0018523
-0.00233695
0.00246454
-0.00301447
-0.00432698
0.0031365
-1.51793e-06
0.000169555
-3.00766e-07
0.000365094
9.71291e-06
0.000458849
3.54447e-05
0.000462854
8.48852e-05
0.000387962
0.000168078
0.000235326
0.000297693
-1.23193e-06
0.000488463
-0.00033322
0.000758196
-0.000783128
0.00111868
-0.00133676
0.0015832
-0.00206114
0.0021325
-0.00288625
0.00278477
-0.00366674
-0.00498878
0.00344657
-1.35772e-06
0.000170913
1.42194e-06
0.000362315
1.51805e-05
0.000445091
4.76436e-05
0.000430391
0.000108039
0.000327566
0.000208077
0.000135288
0.000362397
-0.000155553
0.000587464
-0.000558287
0.000900392
-0.00109606
0.00131281
-0.00174918
0.0018237
-0.00257203
0.00241022
-0.00347277
0.00308021
-0.00433672
-0.00561958
0.00371102
-1.2429e-06
0.000172156
3.17771e-06
0.000357894
2.09487e-05
0.00042732
6.08568e-05
0.000390483
0.000133588
0.000254835
0.000252749
1.61276e-05
0.00043495
-0.000337754
0.000697857
-0.000821193
0.00105593
-0.00145413
0.00151755
-0.00221081
0.00206558
-0.00312005
0.00267295
-0.00408015
0.00333588
-0.00499965
-0.00620474
0.00392104
-1.14457e-06
0.0001733
5.04601e-06
0.000351704
2.72269e-05
0.000405139
7.54795e-05
0.00034223
0.000162193
0.000168122
0.000303042
-0.000124721
0.000516355
-0.000551068
0.000819861
-0.0011247
0.001223
-0.00185726
0.00172682
-0.00271463
0.00229881
-0.00369205
0.00290848
-0.00468982
0.00354148
-0.00563265
-0.00673635
0.00407308
-1.02581e-06
0.000174326
7.12828e-06
0.00034355
3.42488e-05
0.000378018
9.19432e-05
0.000284536
0.000194541
6.55242e-05
0.000359835
-0.000290015
0.000607242
-0.000798476
0.000952663
-0.00147012
0.00139787
-0.00230247
0.00193287
-0.00324963
0.00251304
-0.00427222
0.00310698
-0.00528376
0.00369265
-0.00621832
-0.0072125
0.00416881
-8.5057e-07
0.000175177
9.53892e-06
0.00033316
4.22652e-05
0.000345292
0.000110697
0.000216103
0.000231302
-5.50807e-05
0.000423831
-0.000482544
0.000707646
-0.00108229
0.00109419
-0.00185666
0.00157503
-0.00278332
0.00212725
-0.00380184
0.00269942
-0.00484439
0.00326246
-0.0058468
0.0037905
-0.00674636
-0.0076356
0.00421359
-5.77044e-07
0.000175754
1.23983e-05
0.000320185
5.15343e-05
0.000306156
0.000132188
0.00013545
0.000273075
-0.000195968
0.000495428
-0.000704897
0.000816782
-0.00140364
0.00124102
-0.0022809
0.00174775
-0.00329004
0.00230201
-0.00435611
0.00285194
-0.00539431
0.00337303
-0.00636788
0.00383976
-0.00721309
-0.00801179
0.00421595
-1.39083e-07
0.000175893
1.58276e-05
0.000304218
6.23107e-05
0.000259673
0.00015683
4.09304e-05
0.000320321
-0.000359458
0.000574577
-0.000959153
0.000932883
-0.00176195
0.00138856
-0.00273657
0.00190905
-0.00381053
0.00245096
-0.00489802
0.00296786
-0.00591122
0.00344047
-0.0068405
0.00384691
-0.00761953
-0.00835622
0.00419134
4.04611e-07
0.000175488
1.99398e-05
0.000284683
7.48342e-05
0.000204778
0.000184986
-6.92214e-05
0.0003733
-0.000547773
0.000660651
-0.0012465
0.00105317
-0.00215447
0.0015315
-0.0032149
0.00205274
-0.00433177
0.00257031
-0.00541559
0.00304722
-0.00638812
0.00346957
-0.00726285
0.00382712
-0.00797708
-0.0086851
0.00415601
1.13184e-06
0.000174356
2.48442e-05
0.00026097
8.93192e-05
0.000140303
0.00021693
-0.000196833
0.000431989
-0.000762831
0.000752347
-0.00156686
0.00117403
-0.00257616
0.0016645
-0.00370536
0.00217421
-0.00484148
0.00265879
-0.00590018
0.0030922
-0.00682153
0.00346608
-0.00763674
0.00378932
-0.00830032
-0.00897675
0.00408097
2.09333e-06
0.000172263
3.06376e-05
0.000232426
0.000105945
6.49959e-05
0.000252824
-0.000343712
0.000496006
-0.00100601
0.000847666
-0.00191852
0.00129136
-0.00301985
0.00178288
-0.00419689
0.0022708
-0.0053294
0.00271716
-0.00634653
0.00310658
-0.00721095
0.00343816
-0.00796832
0.00372723
-0.00858939
-0.00923681
0.00398729
3.30803e-06
0.000168955
3.73999e-05
0.000198334
0.000124847
-2.24512e-05
0.000292682
-0.000511546
0.000564551
-0.00127788
0.000944015
-0.00229799
0.00140105
-0.00347688
0.00188318
-0.00467903
0.00234172
-0.00578794
0.00274762
-0.00675243
0.00309525
-0.00755858
0.00338962
-0.0082627
0.00364991
-0.00884968
-0.00947404
0.00388714
4.79495e-06
0.00016416
4.51941e-05
0.000157935
0.000146108
-0.000123365
0.000336333
-0.000701772
0.000636379
-0.00157793
0.00103842
-0.00270003
0.00149948
-0.00393795
0.00196335
-0.00514289
0.00238773
-0.00621232
0.00275336
-0.00711806
0.00306266
-0.00786787
0.0033252
-0.00852524
0.00356129
-0.00908577
-0.00969201
0.00377927
6.56951e-06
0.000157591
5.40647e-05
0.00011044
0.000169749
-0.000239048
0.000383393
-0.000915417
0.000709829
-0.00190436
0.00112783
-0.00311803
0.00158389
-0.00439401
0.00202269
-0.00558169
0.00241064
-0.00660027
0.00273787
-0.00744529
0.00301301
-0.00814302
0.00324855
-0.00876078
0.00346434
-0.00930155
-0.00989425
0.00366657
8.64305e-06
0.000148947
6.40379e-05
5.50451e-05
0.000195721
-0.000370731
0.00043323
-0.00115293
0.000782933
-0.00225407
0.00120945
-0.00354455
0.00165252
-0.00483707
0.00206165
-0.00599082
0.0024129
-0.00695152
0.00270464
-0.00773703
0.00294992
-0.0083883
0.00316267
-0.00897353
0.00336135
-0.00950023
-0.010083
0.00355013
1.1023e-05
0.000137924
7.51207e-05
-9.05259e-06
0.000223891
-0.000519501
0.000484965
-0.001414
0.000853573
-0.00262267
0.001281
-0.00397198
0.00170459
-0.00526066
0.00208149
-0.00636773
0.00239722
-0.00726725
0.00265691
-0.00799672
0.00287638
-0.00860777
0.00306988
-0.00916703
0.00325391
-0.00968426
-0.01026
0.00343086
1.37133e-05
0.000124211
8.73011e-05
-8.26404e-05
0.000254025
-0.000686225
0.000537492
-0.00169747
0.000919679
-0.00300486
0.00134086
-0.00439316
0.0017402
-0.00566
0.00208398
-0.0067115
0.00236633
-0.0075496
0.00259755
-0.00822794
0.00279485
-0.00880506
0.00297194
-0.00934412
0.00314316
-0.00985549
-0.0104262
0.0033094
1.67147e-05
0.000107496
0.000100547
-0.000166472
0.000285777
-0.000871456
0.000589541
-0.00200123
0.000979409
-0.00339473
0.00138811
-0.00480186
0.00176006
-0.00603196
0.00207111
-0.00702256
0.00232277
-0.00780126
0.00252897
-0.00843414
0.00270723
-0.00898332
0.00287015
-0.00950704
0.00302991
-0.0100152
-0.0105825
0.00318617
2.0025e-05
8.74714e-05
0.000114802
-0.000261249
0.000318678
-0.00107533
0.000639766
-0.00232232
0.00103129
-0.00378625
0.00142246
-0.00519302
0.00176534
-0.00637484
0.00204498
-0.00730219
0.00226886
-0.00802514
0.00245322
-0.0086185
0.00261503
-0.00914513
0.00276549
-0.0096575
0.00291471
-0.0101645
-0.0107292
0.00306147
2.36396e-05
6.38318e-05
0.000129981
-0.00036759
0.000352146
-0.0012975
0.000686846
-0.00265702
0.0010743
-0.0041737
0.00144415
-0.00556288
0.00175745
-0.00668813
0.00200757
-0.00755232
0.0022066
-0.00822417
0.0023719
-0.0087838
0.00251937
-0.0092926
0.00265864
-0.00979677
0.00279797
-0.0103038
-0.0108668
0.00293553
2.75512e-05
3.62806e-05
0.000145964
-0.000486003
0.000385506
-0.00153704
0.000729583
-0.0030011
0.00110784
-0.00455196
0.00145381
-0.00590885
0.00173791
-0.00697223
0.00196075
-0.00777516
0.00213769
-0.00840111
0.00228634
-0.00893245
0.00242112
-0.00942737
0.00255011
-0.00992576
0.00267998
-0.0104337
-0.0109954
0.00280852
3.17501e-05
4.53055e-06
0.000162586
-0.000616839
0.000418027
-0.00179248
0.000766982
-0.00335005
0.00113175
-0.00491673
0.00145232
-0.00622942
0.00170825
-0.00722816
0.00190617
-0.00797307
0.00206356
-0.0085585
0.00219755
-0.00906644
0.00232091
-0.00955073
0.00244027
-0.0100451
0.00256096
-0.0105544
-0.011115
0.00268057
3.62237e-05
-3.16932e-05
0.000179636
-0.000760252
0.000448966
-0.00206181
0.000798304
-0.00369939
0.00114618
-0.0052646
0.00144071
-0.00652396
0.00166995
-0.0074574
0.00184529
-0.00814841
0.00198535
-0.00869856
0.00210631
-0.0091874
0.00221921
-0.00966364
0.0023294
-0.0101553
0.00244108
-0.010666
-0.0112257
0.0025518
4.0956e-05
-7.26492e-05
0.000196858
-0.000916154
0.000477608
-0.00234256
0.000823076
-0.00404486
0.00115154
-0.00559306
0.00142009
-0.00679251
0.00162436
-0.00766167
0.00177935
-0.00830341
0.00190402
-0.00882323
0.00201324
-0.00929661
0.0021164
-0.0097668
0.00221771
-0.0102566
0.00232048
-0.0107688
-0.0113275
0.00242232
4.59258e-05
-0.000118575
0.000213959
-0.00108419
0.000503311
-0.00263191
0.000841086
-0.00438263
0.00114842
-0.0059004
0.00139157
-0.00703565
0.0015727
-0.0078428
0.0017094
-0.00844011
0.00182031
-0.00893415
0.00191881
-0.0093951
0.00201273
-0.00986072
0.00210535
-0.0103492
0.00219927
-0.0108627
-0.0114205
0.00229221
5.11043e-05
-0.000169679
0.000230623
-0.00126371
0.000525538
-0.00292683
0.00085234
-0.00470943
0.00113753
-0.00618559
0.0013562
-0.00725432
0.00151606
-0.00800266
0.00163632
-0.00856037
0.00173482
-0.00903265
0.00182336
-0.00948365
0.00190841
-0.00994576
0.00199246
-0.0104333
0.00207756
-0.0109478
-0.0115045
0.00216158
5.64527e-05
-0.000226132
0.000246531
-0.00145378
0.000543881
-0.00322418
0.000857028
-0.00502258
0.00111961
-0.00644817
0.00131501
-0.00744972
0.00145538
-0.00814304
0.00156081
-0.0086658
0.001648
-0.00911983
0.00172719
-0.00956284
0.00180361
-0.0100222
0.00187917
-0.0105089
0.00195545
-0.0110241
-0.0115795
0.00203052
6.19189e-05
-0.000288051
0.00026137
-0.00165323
0.000558071
-0.00352088
0.00085547
-0.00531998
0.00109544
-0.00668814
0.00126889
-0.00762317
0.00139147
-0.00826562
0.00148347
-0.0087578
0.00156023
-0.00919659
0.0016305
-0.00963311
0.00169847
-0.0100902
0.00176556
-0.0105759
0.00183303
-0.0110916
-0.0116456
0.00189911
6.74373e-05
-0.000355488
0.000274847
-0.00186064
0.000567972
-0.003814
0.000848082
-0.00560009
0.00106579
-0.00690585
0.00121868
-0.00777606
0.00132503
-0.00837197
0.00140478
-0.00883755
0.0014718
-0.00926361
0.00153347
-0.00969478
0.00159309
-0.0101498
0.00165174
-0.0106346
0.00171039
-0.0111502
-0.0117027
0.00176744
7.29294e-05
-0.000428418
0.000286704
-0.00207442
0.000573573
-0.00410087
0.000835335
-0.00586185
0.00103138
-0.0071019
0.00116512
-0.00790979
0.00125662
-0.00846347
0.00132512
-0.00890605
0.00138294
-0.00932143
0.00143623
-0.00974807
0.00148758
-0.0102011
0.00153779
-0.0106848
0.00158761
-0.0112
-0.0117507
0.00163562
7.83067e-05
-0.000506724
0.00029672
-0.00229283
0.000574965
-0.00437912
0.000817731
-0.00610462
0.000992906
-0.00727708
0.00110884
-0.00802573
0.00118674
-0.00854137
0.00124479
-0.0089641
0.00129383
-0.00937046
0.00133891
-0.00979315
0.00138203
-0.0102443
0.0014238
-0.0107266
0.00146479
-0.011241
-0.0117896
0.00150372
8.34759e-05
-0.0005902
0.000304721
-0.00251408
0.000572321
-0.00464672
0.00079578
-0.00632808
0.000950987
-0.00743228
0.00105041
-0.00812515
0.00111578
-0.00860675
0.00116406
-0.00901237
0.00120462
-0.00941103
0.0012416
-0.00983013
0.00127653
-0.0102792
0.00130985
-0.0107599
0.00134201
-0.0112732
-0.0118195
0.00137185
8.83429e-05
-0.000678543
0.000310585
-0.00273632
0.000565869
-0.004902
0.000769988
-0.0065322
0.000906196
-0.00756849
0.000990301
-0.00820925
0.00104409
-0.00866053
0.00108312
-0.0090514
0.00111545
-0.00944336
0.00114441
-0.00985909
0.00117115
-0.0103059
0.00119602
-0.0107848
0.00121935
-0.0112965
-0.0118402
0.0012401
9.28174e-05
-0.000771361
0.000314239
-0.00295774
0.00055588
-0.00514364
0.000740838
-0.00671715
0.000859048
-0.0076867
0.000928936
-0.00827914
0.000971922
-0.00870352
0.00100213
-0.00908162
0.00102641
-0.00946764
0.0010474
-0.00988007
0.00106597
-0.0103245
0.0010824
-0.0108012
0.00109691
-0.011311
-0.0118519
0.00110856
9.68159e-05
-0.000868176
0.000315662
-0.00317659
0.000542649
-0.00537063
0.00070879
-0.00688329
0.000809998
-0.00778791
0.000866661
-0.0083358
0.000899519
-0.00873638
0.000921251
-0.00910335
0.000937599
-0.00948399
0.000950653
-0.00989313
0.000961067
-0.0103349
0.000969055
-0.0108092
0.000974753
-0.0113167
-0.0118545
0.000977333
0.000100264
-0.00096844
0.000314877
-0.0033912
0.00052648
-0.00558223
0.000674272
-0.00703109
0.000759447
-0.00787308
0.000803774
-0.00838013
0.000827065
-0.00875967
0.000840582
-0.00911686
0.000849098
-0.00949251
0.000854249
-0.00989828
0.000856517
-0.0103372
0.000856071
-0.0108087
0.000852976
-0.0113136
-0.011848
0.000846508
0.000103096
-0.00107154
0.000311946
-0.00360005
0.000507681
-0.00577796
0.000637677
-0.00716108
0.000707747
-0.00794315
0.000740523
-0.0084129
0.000754713
-0.00877386
0.000760221
-0.00912237
0.000760978
-0.00949326
0.000758248
-0.00989555
0.000752384
-0.0103313
0.000743517
-0.0107999
0.000731653
-0.0113018
-0.0118325
0.000716177
0.000105261
-0.0011768
0.000306962
-0.00380175
0.000486553
-0.00595755
0.000599368
-0.0072739
0.000655208
-0.00799899
0.000677125
-0.00843482
0.000682599
-0.00877934
0.00068026
-0.00912003
0.000673315
-0.00948632
0.000662728
-0.00988496
0.000648748
-0.0103173
0.000631478
-0.0107826
0.000610886
-0.0112812
-0.0118081
0.000586434
0.000106715
-0.00128351
0.000300044
-0.00399508
0.000463385
-0.00612089
0.000559671
-0.00737018
0.000602095
-0.00804142
0.000613755
-0.00844648
0.000610831
-0.00877641
0.000600773
-0.00910997
0.000586172
-0.00947171
0.00056775
-0.00986654
0.000545675
-0.0102953
0.000520019
-0.0107569
0.000490751
-0.0112519
-0.0117747
0.000457346
0.000107432
-0.00139094
0.000291327
-0.00417898
0.000438453
-0.00626802
0.000518877
-0.00745061
0.000548637
-0.00807118
0.000550564
-0.00844841
0.000539502
-0.00876535
0.000521827
-0.0090923
0.000499609
-0.0094495
0.000473378
-0.00984031
0.000443234
-0.0102651
0.000409213
-0.0107229
0.00037131
-0.011214
-0.0117323
0.00032899
0.000107394
-0.00149834
0.000280958
-0.00435254
0.000412015
-0.00639908
0.000477249
-0.00751584
0.000495033
-0.00808896
0.000487679
-0.00844105
0.000468693
-0.00874636
0.000443485
-0.00906709
0.000413687
-0.0094197
0.000379676
-0.0098063
0.000341496
-0.0102269
0.000299154
-0.0106806
0.000252617
-0.0111675
-0.0116811
0.000201386
0.000106599
-0.00160494
0.000269096
-0.00451504
0.000384315
-0.0065143
0.000435019
-0.00756654
0.000441454
-0.0080954
0.000425208
-0.00842481
0.000398474
-0.00871963
0.000365803
-0.00903442
0.000328461
-0.00938236
0.000286701
-0.00976454
0.00024052
-0.0101808
0.000189946
-0.01063
0.000134799
-0.0111123
-0.0116206
7.43086e-05
0.000105059
-0.00171
0.00025591
-0.00466589
0.000355576
-0.00661396
0.000392393
-0.00760336
0.000388047
-0.00809105
0.000363242
-0.0084
0.000328908
-0.0086853
0.000288835
-0.00899435
0.000243988
-0.00933751
0.000194518
-0.00971507
0.000140353
-0.0101266
8.15653e-05
-0.0105712
1.85607e-05
-0.0110493
-0.0115504
-5.16665e-05
0.000102795
-0.00181279
0.000241554
-0.00480465
0.000326005
-0.00669841
0.000349553
-0.00762691
0.000334936
-0.00807643
0.000301862
-0.00836693
0.00026005
-0.00864348
0.000212631
-0.00894693
0.000160321
-0.0092852
0.000103183
-0.00965793
4.10603e-05
-0.0100645
-2.60943e-05
-0.0105041
-9.77982e-05
-0.0109776
-0.0114725
-0.000175655
9.9838e-05
-0.00191263
0.000226181
-0.00493099
0.00029579
-0.00676802
0.000306658
-0.00763778
0.000282231
-0.00805201
0.000241133
-0.00832583
0.00019195
-0.0085943
0.000137235
-0.00889221
7.7505e-05
-0.00922547
1.26274e-05
-0.00959305
-5.71917e-05
-0.00999465
-0.000132097
-0.0104291
-0.000212695
-0.010897
-0.0113864
-0.000298808
9.62294e-05
-0.00200886
0.000209932
-0.00504469
0.000265101
-0.00682319
0.000263848
-0.00763653
0.000230022
-0.00801818
0.000181114
-0.00827692
0.000124656
-0.00853784
6.26768e-05
-0.00883023
-4.64647e-06
-0.00915815
-7.67188e-05
-0.00952098
-0.000154373
-0.00991699
-0.00023734
-0.0103462
-0.000326263
-0.0108081
-0.0112918
-0.00042083
9.20158e-05
-0.00210087
0.000192947
-0.00514563
0.000234092
-0.00686434
0.000221245
-0.00762368
0.000178387
-0.00797532
0.000121856
-0.00822039
5.81918e-05
-0.00847418
-1.10842e-05
-0.00876096
-8.53006e-05
-0.00908393
-0.000165115
-0.00944116
-0.000250488
-0.00983162
-0.000341469
-0.0102552
-0.000438565
-0.010711
-0.0111889
-0.000541551
8.72487e-05
-0.00218812
0.000175355
-0.00523373
0.000202902
-0.00689188
0.000178956
-0.00759973
0.000127391
-0.00792376
6.33997e-05
-0.0081564
-7.58089e-06
-0.0084032
-8.35842e-05
-0.00868495
-0.000165191
-0.00900232
-0.000252446
-0.00935391
-0.000345468
-0.0097386
-0.000444374
-0.0101563
-0.000549569
-0.0106058
-0.0110775
-0.00066089
8.19829e-05
-0.00227011
0.000157278
-0.00530903
0.000171656
-0.00690626
0.000137073
-0.00756515
7.70847e-05
-0.00786377
5.57546e-06
-0.00808489
-7.1939e-05
-0.00832568
-0.000155217
-0.00860168
-0.000244036
-0.00891351
-0.000338651
-0.00925929
-0.000439244
-0.00963801
-0.000545983
-0.0100496
-0.000659212
-0.0104926
-0.010958
-0.000778763
7.62748e-05
-0.00234638
0.000138831
-0.00537158
0.000140467
-0.0069079
9.56709e-05
-0.00752035
2.74766e-05
-0.00779558
-5.08606e-05
-0.00800655
-0.000135542
-0.008241
-0.000225829
-0.00851139
-0.000321779
-0.00881756
-0.000423675
-0.0091574
-0.000531756
-0.00952992
-0.000646234
-0.00993508
-0.000767426
-0.0103714
-0.0108303
-0.0008951
7.01816e-05
-0.00241656
0.00012012
-0.00542152
0.000109433
-0.00689721
5.48315e-05
-0.00746575
-2.12721e-05
-0.00771947
-0.000106593
-0.00792123
-0.000198156
-0.00814944
-0.000295371
-0.00841417
-0.00039837
-0.00871456
-0.000507468
-0.0090483
-0.000622945
-0.00941445
-0.000745065
-0.00981296
-0.00087414
-0.0102423
-0.0106946
-0.00100983
6.37591e-05
-0.00248032
0.000101248
-0.00545901
7.86412e-05
-0.00687461
1.4621e-05
-0.00740173
-6.89853e-05
-0.00763587
-0.000161379
-0.00782884
-0.000259737
-0.00805108
-0.0003638
-0.00831011
-0.000473766
-0.00860459
-0.000589977
-0.00893209
-0.000712755
-0.00929167
-0.000842417
-0.0096833
-0.000979288
-0.0101055
-0.010551
-0.00112288
5.70616e-05
-0.00253738
8.23115e-05
-0.00548426
4.81682e-05
-0.00684046
-2.49092e-05
-0.00732865
-0.00011594
-0.00754483
-0.000215177
-0.0077296
-0.000320249
-0.00794601
-0.000431079
-0.00819928
-0.000547924
-0.00848774
-0.000671156
-0.00880886
-0.00080113
-0.0091617
-0.000938228
-0.0095462
-0.0010828
-0.00996088
-0.0103996
-0.0012342
5.01425e-05
-0.00258753
6.34084e-05
-0.00549753
1.80868e-05
-0.00679514
-6.37209e-05
-0.00724685
-0.000162008
-0.00744655
-0.000267959
-0.00762365
-0.000379659
-0.00783431
-0.00049717
-0.00808177
-0.000620803
-0.00836411
-0.000750956
-0.00867871
-0.000888019
-0.00902463
-0.00103244
-0.00940178
-0.00118462
-0.0098087
-0.0102405
-0.0013437
4.30592e-05
-0.00263058
4.46413e-05
-0.00549911
-1.15438e-05
-0.00673896
-0.000101782
-0.00715661
-0.000207144
-0.00734119
-0.000319699
-0.0075111
-0.000437936
-0.00771607
-0.000562038
-0.00795767
-0.000692362
-0.00823379
-0.000829334
-0.00854173
-0.000973372
-0.00888059
-0.001125
-0.00925015
-0.00128467
-0.00964902
-0.0100739
-0.00145133
3.58726e-05
-0.00266646
2.61714e-05
-0.00548941
-4.06151e-05
-0.00667217
-0.000139065
-0.00705816
-0.000251324
-0.00722893
-0.00037037
-0.00739205
-0.000495051
-0.00759139
-0.000625647
-0.00782707
-0.000762563
-0.00809687
-0.000906245
-0.00839805
-0.00105714
-0.0087297
-0.00121584
-0.00909145
-0.0013829
-0.00948196
-0.00989976
-0.00155703
2.86187e-05
-0.00269508
8.46437e-06
-0.00546925
-6.90984e-05
-0.00659461
-0.000175553
-0.0069517
-0.00029453
-0.00710995
-0.000419951
-0.00726663
-0.000550974
-0.00746037
-0.000687965
-0.00769008
-0.000831367
-0.00795347
-0.000981649
-0.00824777
-0.00113927
-0.00857208
-0.00130491
-0.00892582
-0.00147925
-0.00930763
-0.00971828
-0.00166073
2.12659e-05
-0.00271634
-1.01336e-05
-0.00543785
-9.70669e-05
-0.00650767
-0.000211212
-0.00683756
-0.000336739
-0.00698442
-0.000468417
-0.00713495
-0.000605678
-0.00732311
-0.000748958
-0.0075468
-0.000898736
-0.00780369
-0.0010555
-0.008091
-0.00121974
-0.00840784
-0.00139218
-0.00875337
-0.00157366
-0.00912615
-0.00952958
-0.00176235
1.38473e-05
-0.00273019
-2.9268e-05
-0.00539474
-0.000124516
-0.00641242
-0.000246002
-0.00671607
-0.00037793
-0.0068525
-0.000515746
-0.00699713
-0.000659135
-0.00717972
-0.000808593
-0.00739734
-0.000964636
-0.00764765
-0.00112777
-0.00792787
-0.00129848
-0.00823713
-0.00147761
-0.00857425
-0.0016661
-0.00893767
-0.00933393
-0.00186175
6.49019e-06
-0.00273668
-4.74834e-05
-0.00534077
-0.000151347
-0.00630856
-0.000279904
-0.00658752
-0.00041808
-0.00671432
-0.000561917
-0.0068533
-0.00071132
-0.00703032
-0.000866841
-0.00724182
-0.00102903
-0.00748546
-0.00119841
-0.00775849
-0.00137548
-0.00806006
-0.00156115
-0.00838857
-0.00175648
-0.00874234
-0.0091316
-0.00195881
-4.77296e-07
-0.0027362
-6.51427e-05
-0.0052761
-0.000177515
-0.00619619
-0.000312902
-0.00645213
-0.000457172
-0.00657005
-0.000606908
-0.00670356
-0.000762205
-0.00687502
-0.00092367
-0.00708036
-0.00109188
-0.00731725
-0.00126738
-0.007583
-0.00145068
-0.00787675
-0.00164277
-0.00819648
-0.00184475
-0.00854036
-0.00892255
-0.0020538
-8.35795e-06
-0.00272784
-8.2366e-05
-0.00520209
-0.000202976
-0.00607558
-0.000344979
-0.00631012
-0.000495189
-0.00641984
-0.000650698
-0.00654805
-0.000811767
-0.00671395
-0.00097905
-0.00691307
-0.00115316
-0.00714314
-0.00133464
-0.00740152
-0.00152408
-0.00768732
-0.00172252
-0.00799804
-0.00193089
-0.00833198
-0.00870693
-0.00214651
-1.5707e-05
-0.00271214
-9.91471e-05
-0.00511865
-0.000227709
-0.00594702
-0.000376118
-0.00616172
-0.000532117
-0.00626384
-0.000693268
-0.0063869
-0.00085998
-0.00654724
-0.00103295
-0.0067401
-0.00121282
-0.00696327
-0.00140017
-0.00721417
-0.00159568
-0.00749181
-0.00180045
-0.00779327
-0.00201462
-0.00811781
-0.00848656
-0.00223499
-2.28755e-05
-0.00268926
-0.000115475
-0.00502605
-0.000251697
-0.0058108
-0.000406305
-0.00600711
-0.000567939
-0.00610221
-0.000734599
-0.00622024
-0.000906819
-0.00637502
-0.00108534
-0.00656158
-0.00127083
-0.00677778
-0.00146391
-0.00702109
-0.00166541
-0.00729031
-0.0018764
-0.00758228
-0.00209702
-0.00789719
-0.00826532
-0.00231826
-2.9883e-05
-0.00265938
-0.000131338
-0.0049246
-0.000274926
-0.00566721
-0.000435529
-0.0058465
-0.000602645
-0.00593509
-0.000774673
-0.00604821
-0.000952263
-0.00619743
-0.00113619
-0.00637765
-0.00132716
-0.00658681
-0.00152585
-0.0068224
-0.00173316
-0.00708299
-0.00194957
-0.00736588
-0.00217206
-0.0076747
-0.0080212
-0.00241618
-3.67254e-05
-0.00262265
-0.000146722
-0.0048146
-0.000297385
-0.00551655
-0.000463779
-0.00568011
-0.000636219
-0.00576265
-0.000813472
-0.00587096
-0.000996287
-0.00601461
-0.00118548
-0.00618846
-0.00138178
-0.00639051
-0.00158593
-0.00661826
-0.00179875
-0.00687017
-0.00202026
-0.00714437
-0.00224997
-0.00744499
-0.00777233
-0.00249884
-4.33928e-05
-0.00257926
-0.000161614
-0.00469638
-0.000319064
-0.00535909
-0.000491044
-0.00550813
-0.000668649
-0.00558505
-0.000850978
-0.00568863
-0.00103887
-0.00582672
-0.00123317
-0.00599416
-0.00143466
-0.00618902
-0.00164411
-0.00640881
-0.00186229
-0.00665198
-0.00208931
-0.00691734
-0.00232618
-0.00720812
-0.00751958
-0.00257892
-4.98737e-05
-0.00252939
-0.000175999
-0.00457025
-0.000339954
-0.00519514
-0.000517318
-0.00533077
-0.000699925
-0.00540244
-0.000887177
-0.00550138
-0.00107999