/*--------------------------------*- C++ -*----------------------------------*\
  =========                 |
  \\      /  F ield         | OpenFOAM: The Open Source CFD Toolbox
   \\    /   O peration     | Website:  https://openfoam.org
    \\  /    A nd           | Version:  7
     \\/     M anipulation  |
\*---------------------------------------------------------------------------*/
FoamFile
{
    version     2.0;
    format      ascii;
    class       volVectorField;
    location    "15";
    object      U;
}
// * * * * * * * * * * * * * * * * * * * * * * * * * * * * * * * * * * * * * //

dimensions      [0 1 -1 0 0 0 0];

internalField   nonuniform List<vector> 
16660
(
(-0.0032683 0.00145295 -2.37419e-21)
(-0.0172614 0.00287887 -1.06908e-20)
(-0.0394106 0.00352561 -1.47982e-20)
(-0.0618412 0.0037459 3.97286e-21)
(-0.0843985 0.00374159 4.40587e-21)
(-0.105683 0.00364147 1.02182e-22)
(-0.125726 0.00351064 -7.98702e-21)
(-0.144476 0.00337906 -1.80876e-21)
(-0.162105 0.0032598 -1.14359e-20)
(-0.178654 0.0031451 -1.45922e-21)
(-0.194419 0.00307023 -1.01582e-20)
(-0.209081 0.00295985 -1.06015e-20)
(-0.223989 0.00306823 1.73553e-21)
(-0.237048 0.00294385 -6.33908e-21)
(-0.00339385 0.00435262 -1.92989e-21)
(-0.017418 0.00862556 4.16004e-20)
(-0.0394466 0.0105619 -7.03516e-21)
(-0.0616915 0.011218 -5.1299e-21)
(-0.0840061 0.0111995 -2.29408e-20)
(-0.105 0.0108921 1.03184e-20)
(-0.1247 0.0104907 9.96049e-21)
(-0.143043 0.0100845 3.08601e-20)
(-0.160196 0.00971254 -4.39623e-21)
(-0.17617 0.00934974 -1.07762e-20)
(-0.191281 0.00910514 1.77967e-20)
(-0.205081 0.00873663 1.61051e-20)
(-0.219112 0.00904317 1.75611e-20)
(-0.230679 0.00859614 1.66423e-20)
(-0.00364265 0.00719839 2.62287e-21)
(-0.0177294 0.0142824 -5.78361e-20)
(-0.0395198 0.0174992 1.0564e-20)
(-0.0613958 0.0185899 -4.66207e-20)
(-0.083228 0.018557 -2.79235e-20)
(-0.103644 0.01804 2.88113e-21)
(-0.122661 0.0173626 -1.34176e-21)
(-0.140198 0.0166734 -3.06739e-20)
(-0.156407 0.0160379 4.11447e-20)
(-0.171241 0.0154087 1.06448e-20)
(-0.185067 0.0149788 6.76976e-21)
(-0.197157 0.0142902 -5.20906e-20)
(-0.209497 0.0147941 2.39077e-20)
(-0.21813 0.0138611 1.43982e-20)
(-0.0040099 0.00995588 6.92273e-21)
(-0.018192 0.0197915 -2.44385e-20)
(-0.0396314 0.0242729 1.14868e-20)
(-0.060961 0.0257958 2.04712e-20)
(-0.0820764 0.0257479 -5.72574e-21)
(-0.101634 0.0250172 -5.73179e-20)
(-0.119636 0.0240554 6.51772e-20)
(-0.135975 0.0230697 7.83708e-20)
(-0.150789 0.0221535 8.24122e-21)
(-0.163938 0.0212288 -1.78858e-20)
(-0.175889 0.0205911 3.33631e-20)
(-0.185447 0.0194829 2.31349e-20)
(-0.195398 0.0201889 -2.49832e-20)
(-0.199751 0.0185061 -9.72768e-20)
(-0.00448866 0.012593 4.60662e-20)
(-0.0188001 0.0250975 -9.07588e-21)
(-0.0397835 0.0308206 5.78373e-20)
(-0.0603964 0.032771 -1.06428e-20)
(-0.0805686 0.0327069 5.66016e-20)
(-0.0989947 0.0317572 -1.97368e-20)
(-0.115662 0.0304996 -5.13559e-20)
(-0.130428 0.0291997 -1.69726e-20)
(-0.143416 0.0279804 -3.13336e-20)
(-0.154355 0.0267223 4.23835e-20)
(-0.163902 0.0258519 -6.44005e-20)
(-0.170134 0.024193 8.53623e-20)
(-0.177152 0.0251185 -1.06511e-20)
(-0.175995 0.0223374 8.54686e-20)
(-0.00507009 0.0150809 -3.41263e-20)
(-0.0195466 0.0301489 8.43199e-20)
(-0.0399785 0.0370826 -6.48411e-20)
(-0.0597139 0.0394533 4.08392e-20)
(-0.0787264 0.0393706 3.61682e-20)
(-0.0957593 0.0381948 5.76001e-20)
(-0.110784 0.0366276 5.50969e-20)
(-0.123616 0.0349923 -4.09863e-20)
(-0.134376 0.0334438 1.15454e-20)
(-0.142606 0.0318086 -7.11179e-20)
(-0.149286 0.030682 4.2058e-20)
(-0.151416 0.0283201 -1.02841e-19)
(-0.155129 0.0295013 -4.79412e-21)
(-0.147347 0.0252161 -3.09962e-20)
(-0.00574391 0.0173943 -8.84823e-21)
(-0.0204228 0.0348989 2.88355e-21)
(-0.0402187 0.0430027 7.71491e-20)
(-0.0589271 0.0457826 -3.31768e-20)
(-0.0765748 0.0456773 -4.65199e-20)
(-0.0919647 0.044267 -7.71096e-20)
(-0.105053 0.0423744 -4.13546e-20)
(-0.115611 0.04038 -1.16127e-20)
(-0.123764 0.0384739 8.56964e-20)
(-0.128805 0.036415 1.12542e-20)
(-0.13223 0.0350124 1.02694e-20)
(-0.129478 0.0317904 1.47957e-19)
(-0.129679 0.0332818 -1.24659e-20)
(-0.114233 0.0270795 2.7532e-20)
(-0.00649873 0.0195124 -1.50055e-21)
(-0.0214191 0.0393061 -1.88295e-20)
(-0.0405064 0.0485292 -1.01113e-20)
(-0.0580503 0.0517021 -5.91123e-20)
(-0.07414 0.0515675 -3.07553e-20)
(-0.0876494 0.0499129 1.13096e-19)
(-0.0985238 0.0476776 -4.08947e-20)
(-0.106479 0.0452994 -1.75078e-20)
(-0.111674 0.0430056 -6.83712e-21)
(-0.113057 0.0404779 -5.35198e-20)
(-0.112905 0.0387808 -4.27695e-20)
(-0.104467 0.0345622 -1.18662e-19)
(-0.101067 0.0364044 -8.89144e-20)
(-0.0769336 0.0279903 6.07839e-20)
(-0.00732259 0.0214193 -5.01128e-20)
(-0.0225245 0.0433352 8.9521e-20)
(-0.040843 0.053615 2.03456e-20)
(-0.0570971 0.0571583 7.13663e-20)
(-0.0714482 0.0569848 4.0291e-21)
(-0.0828514 0.0550744 -1.18652e-20)
(-0.0912454 0.052478 -8.28721e-21)
(-0.0962827 0.0496914 1.7387e-19)
(-0.0981888 0.046979 -1.92527e-19)
(-0.095443 0.0439436 8.49708e-21)
(-0.0914406 0.0419253 1.68996e-20)
(-0.076476 0.036646 8.72322e-20)
(-0.0693946 0.0387075 -1.05551e-19)
(-0.0355589 0.0282243 5.26645e-20)
(-0.00820342 0.023104 -1.08639e-19)
(-0.0237274 0.0469575 -3.78446e-20)
(-0.041229 0.0582188 6.8123e-21)
(-0.0560799 0.0621022 2.19398e-20)
(-0.0685226 0.061876 -1.44628e-19)
(-0.0776037 0.0596964 4.47904e-20)
(-0.08326 0.0567202 -3.79671e-20)
(-0.0850702 0.053502 -1.19027e-19)
(-0.0833657 0.0503399 8.44557e-20)
(-0.076006 0.0467713 4.71296e-20)
(-0.0678776 0.044362 3.35966e-20)
(-0.0455758 0.0381637 1.51755e-19)
(-0.0345041 0.0398348 1.62896e-19)
(0.00987912 0.0281603 -4.82597e-20)
(-0.00912952 0.0245606 1.22068e-19)
(-0.0250156 0.050151 -1.17753e-19)
(-0.0416627 0.0623051 9.61558e-20)
(-0.0550074 0.0664893 -1.53139e-19)
(-0.0653815 0.0661917 2.56215e-21)
(-0.0719306 0.0637279 -1.37713e-19)
(-0.0745949 0.0603529 -4.45001e-20)
(-0.0728646 0.0566834 9.76534e-20)
(-0.067223 0.053042 1.20883e-19)
(-0.0547489 0.0489526 7.65273e-20)
(-0.0421007 0.0459514 4.46205e-22)
(-0.0117975 0.0393179 -1.98978e-19)
(0.00379709 0.0399461 8.86803e-20)
(0.0602679 0.0276179 -8.73032e-20)
(-0.01009 0.0257885 -4.24094e-20)
(-0.0263765 0.0529011 -8.26202e-20)
(-0.0421401 0.0658447 -1.09801e-19)
(-0.0538837 0.0702803 2.3082e-19)
(-0.0620344 0.069887 1.72677e-19)
(-0.0658431 0.067122 1.16954e-19)
(-0.0652555 0.0633295 1.58762e-19)
(-0.0596543 0.0591936 -9.94494e-20)
(-0.0497109 0.0550338 -1.79509e-19)
(-0.0316463 0.0505424 -1.77464e-19)
(-0.0138485 0.0466099 1.58963e-19)
(0.0253455 0.0399631 1.13474e-19)
(0.0453455 0.0396092 -9.83949e-20)
(0.116936 0.0264827 -2.51323e-20)
(-0.0110753 0.0267916 1.31313e-19)
(-0.0277969 0.0551996 1.28059e-19)
(-0.0426539 0.0688151 -5.33563e-20)
(-0.0527057 0.0734419 1.46289e-19)
(-0.0584794 0.0729224 -8.33383e-20)
(-0.0593331 0.0698372 -1.56554e-19)
(-0.0552173 0.0656104 -8.53079e-20)
(-0.0453868 0.0609985 6.54926e-20)
(-0.0306684 0.0562368 1.07855e-19)
(-0.00654177 0.0515444 -1.3937e-20)
(0.0170381 0.0464699 -7.76079e-20)
(0.0666957 0.0399195 -1.39973e-19)
(0.0905355 0.0388217 -8.44533e-22)
(0.180998 0.0252314 7.31209e-20)
(-0.0120771 0.0275782 -4.42732e-20)
(-0.0292631 0.0570455 8.30596e-20)
(-0.043192 0.0712008 1.23827e-19)
(-0.051461 0.075947 -1.93945e-19)
(-0.0546985 0.0752643 2.9452e-19)
(-0.0523672 0.071839 9.24101e-20)
(-0.0444158 0.067164 1.64748e-19)
(-0.0299702 0.0620809 -1.37486e-19)
(-0.00989522 0.0566809 1.82825e-19)
(0.0209948 0.0518616 1.64931e-19)
(0.0509098 0.0456345 -4.0046e-20)
(0.112961 0.039478 -9.22106e-20)
(0.140199 0.0372538 8.39061e-20)
(0.253604 0.0243258 1.36664e-20)
(-0.0130892 0.0281605 -1.20095e-19)
(-0.0307606 0.0584436 3.44983e-20)
(-0.0437368 0.0729928 6.09771e-20)
(-0.0501253 0.0777757 7.31513e-20)
(-0.0506535 0.0768865 -2.12682e-19)
(-0.0448798 0.0731007 -2.29986e-20)
(-0.032732 0.0679695 -4.12709e-20)
(-0.0132025 0.0624293 1.94218e-19)
(0.0128557 0.0564386 -3.82824e-20)
(0.0514381 0.0515192 1.00912e-19)
(0.0884959 0.0440432 -3.60816e-20)
(0.164866 0.0390577 1.82756e-19)
(0.195443 0.0348067 -3.34102e-20)
(0.335641 0.0241344 -7.10623e-20)
(-0.0141068 0.0285535 1.97322e-20)
(-0.0322739 0.0594044 1.4838e-19)
(-0.0442637 0.0741895 -8.89416e-20)
(-0.0486598 0.0789155 7.18092e-20)
(-0.046281 0.0777715 -9.22427e-20)
(-0.0367656 0.0736057 2.65109e-20)
(-0.0199925 0.068019 -1.13115e-19)
(0.00520997 0.0620417 -9.99031e-20)
(0.0380285 0.0555101 -3.17191e-19)
(0.0853398 0.0506926 -2.29144e-19)
(0.130769 0.0417326 -1.35146e-19)
(0.223105 0.0390067 -2.8574e-19)
(0.257717 0.0317205 -7.93324e-20)
(0.427273 0.0249694 -1.96981e-21)
(-0.015127 0.0287747 -1.3521e-19)
(-0.0337858 0.0599431 -3.56341e-19)
(-0.0447393 0.0747959 -1.70373e-19)
(-0.0470077 0.0793624 -2.33512e-19)
(-0.0414872 0.0779114 2.39334e-19)
(-0.027871 0.0733499 -3.76114e-20)
(-0.00595181 0.067323 -4.53799e-20)
(0.0256446 0.0609592 -2.29521e-19)
(0.0662132 0.0539409 2.99457e-19)
(0.123396 0.049546 1.17995e-19)
(0.178912 0.0389431 1.69794e-19)
(0.288154 0.0395372 4.25701e-20)
(0.328699 0.0286218 2.28431e-19)
(0.527515 0.027096 -1.42559e-19)
(-0.0161485 0.0288427 1.58832e-19)
(-0.0352764 0.0600789 -5.46575e-20)
(-0.0451201 0.0748233 -1.62304e-19)
(-0.0450914 0.0791209 -1.1696e-20)
(-0.036143 0.07731 3.56369e-20)
(-0.0179862 0.0723443 1.45042e-19)
(0.00972032 0.0659121 1.2349e-20)
(0.0485883 0.0592523 6.42887e-20)
(0.0981282 0.0518511 -3.62717e-19)
(0.166415 0.04823 3.65491e-20)
(0.234222 0.0361566 -9.83937e-22)
(0.360142 0.0406848 1.27531e-19)
(0.409835 0.0264873 -3.28693e-20)
(0.633951 0.0307386 1.21544e-19)
(-0.0171709 0.0287766 -5.09168e-20)
(-0.0367227 0.0598337 9.77852e-20)
(-0.0453504 0.0742895 3.85611e-19)
(-0.0428089 0.0782054 1.67362e-19)
(-0.0300779 0.0759844 -9.27007e-20)
(-0.0068392 0.0706187 -1.71852e-20)
(0.0274437 0.0638434 -1.57734e-19)
(0.0746427 0.0570254 2.17286e-19)
(0.134602 0.0494356 1.84532e-19)
(0.215263 0.0468935 -1.92169e-19)
(0.297863 0.0340716 -3.46323e-20)
(0.43883 0.0423748 4.64353e-20)
(0.501571 0.0263828 -1.39414e-19)
(0.74279 0.0360495 -1.29213e-19)
(-0.0181942 0.028595 -4.56999e-20)
(-0.0380963 0.0592304 -2.11377e-20)
(-0.0453611 0.073219 4.02965e-20)
(-0.0400314 0.07664 -1.74965e-19)
(-0.0230764 0.0739663 1.40871e-20)
(0.00591069 0.068225 -2.56154e-19)
(0.0477294 0.0612066 -6.66627e-21)
(0.104515 0.0544255 -1.63743e-19)
(0.176526 0.0469715 -4.82141e-20)
(0.270788 0.0457152 1.23876e-19)
(0.370474 0.0334595 -1.36964e-19)
(0.523622 0.044611 -3.27321e-19)
(0.60258 0.0290757 1.8049e-19)
(0.84936 0.0430066 2.78539e-19)
(-0.0192188 0.0283149 -3.86849e-20)
(-0.0393625 0.0582918 -2.23703e-20)
(-0.0450673 0.0716423 5.22964e-20)
(-0.0366 0.0744592 3.45217e-19)
(-0.0148738 0.071305 1.15925e-19)
(0.0206749 0.0652402 1.28751e-19)
(0.071175 0.0581291 4.62175e-20)
(0.138989 0.0516489 4.32441e-20)
(0.224764 0.0448144 -1.30348e-21)
(0.333701 0.0449595 -7.67202e-20)
(0.451799 0.0349335 1.41213e-19)
(0.613463 0.0476297 4.12925e-20)
(0.709429 0.034755 -3.05993e-20)
(0.948934 0.0513056 -3.31474e-19)
(-0.0202443 0.0279512 -2.073e-19)
(-0.0404821 0.0570452 -2.27318e-20)
(-0.044364 0.0695913 -3.33116e-19)
(-0.0323243 0.0717076 -2.09842e-19)
(-0.00515494 0.0680676 -1.30929e-19)
(0.0379338 0.0617708 1.1639e-19)
(0.0984488 0.0547819 1.5658e-19)
(0.178881 0.0489457 3.44442e-20)
(0.280031 0.0433701 -6.83608e-20)
(0.404376 0.0450305 2.40939e-19)
(0.540478 0.0387715 1.95063e-19)
(0.706601 0.0518381 7.67607e-20)
(0.817027 0.0430198 -9.60462e-20)
(1.03758 0.0603666 3.6974e-19)
(-0.0212678 0.0275166 2.92631e-19)
(-0.0414089 0.0555164 -5.95952e-20)
(-0.043128 0.0671 1.45834e-19)
(-0.0269791 0.0684415 1.62905e-19)
(0.00644566 0.0643417 8.75624e-20)
(0.0582295 0.057955 3.01153e-20)
(0.130261 0.051382 7.1588e-20)
(0.224957 0.0466225 -1.1721e-19)
(0.342742 0.0430504 1.92243e-19)
(0.482567 0.0464443 -1.20763e-19)
(0.634112 0.0449013 -1.01775e-19)
(0.800412 0.0575517 -3.50548e-20)
(0.91975 0.0530927 -1.57473e-19)
(1.11275 0.0694835 -3.22299e-19)
(-0.0222839 0.0270202 2.06279e-19)
(-0.0420843 0.0537244 2.66229e-19)
(-0.0412193 0.0642109 2.00534e-19)
(-0.0203068 0.0647285 -1.78689e-19)
(0.0203396 0.0602354 -3.19543e-20)
(0.0821497 0.0539654 -2.88761e-21)
(0.167322 0.0481946 1.28793e-19)
(0.277828 0.0450399 2.31059e-19)
(0.412847 0.0442267 -1.34011e-19)
(0.567146 0.049689 6.22706e-20)
(0.729543 0.0530073 -1.83414e-19)
(0.891579 0.0647573 8.45369e-20)
(1.01272 0.0640964 2.19787e-19)
(1.17347 0.0780128 -5.48591e-20)
(-0.0232835 0.0264664 -2.81295e-19)
(-0.0424393 0.0516866 1.57841e-19)
(-0.0384776 0.0609695 -1.97056e-19)
(-0.012019 0.0606469 4.11184e-20)
(0.0369771 0.0558789 -5.87832e-20)
(0.110304 0.0500095 1.01055e-19)
(0.210273 0.0455296 -1.61359e-19)
(0.337812 0.0445941 1.94368e-20)
(0.48968 0.0471916 1.36714e-19)
(0.656002 0.0550436 -2.61914e-19)
(0.823265 0.0626338 2.04622e-19)
(0.976684 0.0730936 -1.71425e-19)
(1.09269 0.0752705 1.13405e-20)
(1.22012 0.0854975 3.91899e-19)
(-0.0242526 0.0258554 -2.44648e-19)
(-0.0423947 0.0494191 -2.70251e-19)
(-0.0347223 0.0574233 -2.40663e-19)
(-0.00179935 0.0562857 -1.11287e-19)
(0.0568352 0.051424 -2.01257e-19)
(0.14329 0.0463296 -2.76379e-19)
(0.259605 0.0437312 -1.16255e-19)
(0.404786 0.0456769 -4.84723e-20)
(0.571855 0.0521177 -3.47349e-19)
(0.746228 0.0624711 8.77061e-20)
(0.911902 0.0732392 3.66781e-21)
(1.0529 0.0820277 1.80259e-19)
(1.15819 0.0860878 -1.32649e-19)
(1.25408 0.0916416 4.38359e-20)
(-0.0251708 0.0251827 2.45761e-19)
(-0.0418608 0.0469369 1.64293e-19)
(-0.0297549 0.0536221 4.43201e-19)
(0.0106912 0.0517447 -4.51564e-20)
(0.080401 0.0470451 1.02969e-19)
(0.181645 0.0432003 -1.21551e-19)
(0.315559 0.0431585 1.82839e-19)
(0.478055 0.0486135 -1.27425e-20)
(0.657291 0.0590116 3.08751e-20)
(0.834572 0.0716358 1.26129e-19)
(0.99268 0.0842457 -5.96468e-20)
(1.11847 0.0910778 -1.95938e-19)
(1.20929 0.0962315 -2.02874e-20)
(1.27727 0.0961913 -3.10776e-19)
(-0.0260094 0.0244395 -3.27181e-19)
(-0.0407373 0.0442545 2.48282e-19)
(-0.023361 0.0496182 -3.86814e-19)
(0.025807 0.0471349 3.79447e-19)
(0.108151 0.0429385 4.80701e-20)
(0.225788 0.0409232 -2.95748e-20)
(0.378007 0.0441534 -2.92613e-19)
(0.556293 0.0535924 -2.05234e-19)
(0.743393 0.0676858 1.97483e-19)
(0.917972 0.0820095 5.20513e-20)
(1.06375 0.0951238 4.84304e-20)
(1.17276 0.0999439 3.2091e-19)
(1.24711 0.105382 -1.91824e-19)
(1.29198 0.0987849 2.47504e-20)
(-0.0267371 0.0236201 -2.80204e-20)
(-0.0389079 0.0413816 -2.27256e-19)
(-0.015313 0.0454666 4.28047e-19)
(0.043909 0.0425785 -1.34644e-19)
(0.140521 0.0393228 -7.7386e-20)
(0.27595 0.0398155 3.74403e-19)
(0.446362 0.046995 -5.13274e-20)
(0.637594 0.0606126 2.73275e-19)
(0.827406 0.077778 -2.08419e-19)
(0.994009 0.093003 -6.08011e-20)
(1.12428 0.105486 -5.65745e-20)
(1.21603 0.108457 -2.73886e-19)
(1.27361 0.112941 1.39209e-19)
(1.30132 0.099396 -1.87575e-20)
(-0.027322 0.0227183 1.17512e-19)
(-0.0362441 0.0383232 -1.49204e-19)
(-0.00537159 0.0412273 4.49026e-20)
(0.0653541 0.0382108 1.04176e-19)
(0.177877 0.0364382 1.01623e-19)
(0.332093 0.0401885 -2.5805e-19)
(0.519527 0.051848 1.34674e-19)
(0.71966 0.0694727 1.4086e-20)
(0.906803 0.0888215 2.33413e-19)
(1.06114 0.104081 8.17452e-21)
(1.17427 0.11513 1.3326e-19)
(1.24917 0.116377 1.92604e-19)
(1.2913 0.118404 3.16928e-21)
(1.31294 0.105455 2.9083e-19)
(-0.0277232 0.0217218 -1.11787e-19)
(-0.0326115 0.0350885 2.27326e-19)
(0.00670902 0.0369666 2.23697e-19)
(0.0904821 0.0341817 -1.83611e-19)
(0.220468 0.0345435 -1.89062e-19)
(0.393836 0.0423144 -1.39202e-19)
(0.595929 0.0587196 1.03328e-19)
(0.800103 0.0798116 7.67556e-20)
(0.979602 0.100333 5.75394e-20)
(1.1187 0.114836 -7.46954e-20)
(1.21434 0.123971 4.52922e-20)
(1.27349 0.123376 -6.93002e-20)
(1.30362 0.123517 1.44027e-19)
(1.31812 0.109678 -6.645e-21)
(-0.0278917 0.0206171 3.22284e-19)
(-0.0278692 0.0316914 -1.75072e-19)
(0.0211764 0.0327589 2.26162e-19)
(0.1196 0.0306586 -3.79583e-20)
(0.26838 0.0339081 4.90819e-20)
(0.460411 0.0463818 2.88982e-19)
(0.673665 0.0674489 1.45657e-19)
(0.87674 0.091184 2.94942e-20)
(1.04452 0.111889 -1.67971e-19)
(1.16675 0.125007 8.60926e-20)
(1.24552 0.131956 2.54035e-20)
(1.29079 0.129633 -7.77357e-20)
(1.31106 0.127926 -1.46448e-20)
(1.31991 0.11383 -2.94693e-19)
(-0.0277738 0.0193931 1.86564e-19)
(-0.0218686 0.0281505 6.44152e-20)
(0.0382754 0.0286883 -5.29253e-19)
(0.152963 0.0278293 -2.27013e-20)
(0.32148 0.0347934 2.13337e-19)
(0.530663 0.0524561 3.07556e-20)
(0.750716 0.0777361 -1.37247e-19)
(0.947838 0.103141 2.86636e-20)
(1.10097 0.123164 -1.16696e-19)
(1.20586 0.134452 -1.00983e-20)
(1.26905 0.139132 -6.892e-20)
(1.30243 0.135201 -3.48635e-20)
(1.31498 0.131941 -1.71987e-19)
(1.31958 0.117572 1.82199e-20)
(-0.0273112 0.0180416 7.80755e-20)
(-0.014456 0.0244909 1.1406e-19)
(0.0582421 0.0248525 3.63565e-19)
(0.190747 0.0259035 3.41206e-19)
(0.379369 0.0374233 -3.06694e-19)
(0.603129 0.0604594 -3.55375e-19)
(0.825184 0.0892024 -1.40188e-19)
(1.01222 0.115289 -1.52848e-19)
(1.14894 0.133937 4.95179e-20)
(1.23692 0.143122 -8.82988e-20)
(1.28621 0.145576 -7.57028e-20)
(1.30972 0.140217 -7.58675e-21)
(1.31631 0.135625 -9.6301e-20)
(1.31757 0.121115 2.40306e-19)
(-0.026442 0.0165585 -2.90202e-19)
(-0.00547431 0.0207474 3.8086e-19)
(0.0812969 0.0213661 -2.70845e-19)
(0.233021 0.0251093 -2.46802e-19)
(0.441361 0.0419487 -6.30256e-20)
(0.676179 0.0701843 3.15849e-19)
(0.895479 0.101455 -1.24174e-19)
(1.06925 0.127319 -7.3764e-20)
(1.18883 0.144082 5.65538e-20)
(1.26096 0.151037 1.66096e-19)
(1.2982 0.151391 4.34744e-20)
(1.31369 0.144794 -8.15552e-20)
(1.31577 0.139087 5.25879e-20)
(1.31457 0.1245 -5.33656e-20)
(-0.0251008 0.0149444 4.68221e-19)
(0.00523375 0.0169656 -3.70674e-19)
(0.107635 0.0183646 2.6338e-19)
(0.279707 0.0256816 -6.51961e-20)
(0.506494 0.0484158 1.28347e-19)
(0.748188 0.0813344 1.02095e-19)
(0.960423 0.114136 -3.98855e-23)
(1.11877 0.139011 -9.00741e-20)
(1.22132 0.153548 -5.67438e-20)
(1.27906 0.158259 9.80821e-20)
(1.30607 0.156689 5.30878e-20)
(1.31518 0.149044 1.05118e-19)
(1.31391 0.142394 2.38404e-19)
(1.31086 0.127798 -1.26089e-19)
(-0.0232201 0.0132056 -4.04321e-19)
(0.0178236 0.013205 3.01539e-19)
(0.137415 0.0160082 4.21224e-20)
(0.330552 0.02784 1.68469e-19)
(0.573596 0.056756 -1.16371e-20)
(0.817686 0.093578 5.47238e-20)
(1.01927 0.126951 2.73628e-19)
(1.16099 0.150227 1.64046e-19)
(1.24723 0.162339 8.63849e-20)
(1.29221 0.164874 -3.35839e-19)
(1.31074 0.161576 -6.59039e-20)
(1.31486 0.153058 -5.84859e-20)
(1.31111 0.145608 4.51531e-21)
(1.3067 0.131045 -3.79045e-21)
(-0.0207308 0.0113546 1.02269e-19)
(0.0324454 0.00953989 -5.01973e-19)
(0.17074 0.0144824 -1.478e-19)
(0.385106 0.0317591 1.16174e-19)
(0.641389 0.0667999 -1.1509e-19)
(0.883473 0.106593 -6.75795e-21)
(1.07168 0.139674 1.24559e-19)
(1.19637 0.160891 -1.7387e-19)
(1.26742 0.170495 -1.83366e-19)
(1.30134 0.170977 1.31733e-19)
(1.31294 0.166153 1.58088e-20)
(1.31322 0.156913 1.1923e-19)
(1.30768 0.148769 -3.96583e-20)
(1.30224 0.13427 1.25272e-19)
(-0.0175634 0.00941024 -1.91415e-19)
(0.0492408 0.00606171 4.46785e-19)
(0.207638 0.0139955 -1.70651e-19)
(0.442724 0.0375406 -2.39055e-19)
(0.708595 0.078312 2.45669e-20)
(0.944663 0.120094 -1.64603e-21)
(1.1176 0.152147 1.2793e-19)
(1.22548 0.17098 2.09691e-19)
(1.28275 0.178083 2.98179e-19)
(1.30724 0.176665 -7.15435e-21)
(1.31327 0.170504 8.08962e-21)
(1.31063 0.160667 -1.5066e-19)
(1.30379 0.151911 -8.1535e-20)
(1.29758 0.137491 -5.00704e-20)
(-0.0136491 0.00739796 1.40116e-19)
(0.0683379 0.00288081 9.68542e-20)
(0.24804 0.0147673 2.3123e-19)
(0.502595 0.0451973 2.62407e-19)
(0.774048 0.0910298 -3.22954e-20)
(1.00068 0.133849 5.22917e-20)
(1.15723 0.164266 -1.54915e-19)
(1.24902 0.180508 1.67454e-19)
(1.294 0.185177 -4.27753e-20)
(1.31058 0.182028 -1.34963e-19)
(1.3122 0.174702 6.71993e-20)
(1.30735 0.164365 -5.87481e-20)
(1.29958 0.155054 9.30925e-20)
(1.29278 0.140719 7.04213e-20)
(-0.00892035 0.00534966 -1.23332e-20)
(0.0898447 0.000128093 -1.81957e-19)
(0.291763 0.0170116 -2.21622e-19)
(0.563803 0.054656 -7.26251e-20)
(0.836759 0.104696 1.15072e-19)
(1.05124 0.147675 -2.50096e-20)
(1.19096 0.175972 -7.39324e-20)
(1.26767 0.18951 7.04637e-20)
(1.30188 0.191861 2.48041e-19)
(1.31192 0.187147 2.09376e-19)
(1.31008 0.178806 -7.33055e-20)
(1.30358 0.168041 4.78756e-20)
(1.29513 0.158212 -4.27288e-20)
(1.28788 0.14396 -6.57831e-20)
(-0.00331219 0.0033037 -8.50517e-20)
(0.113841 -0.00204411 -2.40277e-19)
(0.338497 0.0209134 2.68181e-19)
(0.625389 0.0657767 -6.93969e-20)
(0.895957 0.11908 7.786e-21)
(1.09626 0.161437 5.47994e-21)
(1.21922 0.187243 1.92503e-20)
(1.28209 0.198041 -2.07411e-19)
(1.307 0.198212 6.46092e-20)
(1.31169 0.192094 1.32024e-19)
(1.30716 0.18286 -1.20738e-19)
(1.29943 0.171716 8.79584e-20)
(1.2905 0.161393 4.00245e-20)
(1.28288 0.147218 2.13915e-20)
(0.00323728 0.00130508 1.85942e-20)
(0.14037 -0.00346293 1.08318e-19)
(0.38781 0.0266072 1.83667e-19)
(0.68642 0.0783799 -3.54639e-20)
(0.95109 0.133983 1.52902e-19)
(1.13586 0.17504 6.74653e-20)
(1.24255 0.198082 1.68304e-19)
(1.2929 0.206162 1.59646e-19)
(1.30988 0.204306 -1.87753e-19)
(1.31025 0.196926 -1.36503e-19)
(1.30365 0.1869 -1.52742e-19)
(1.29501 0.175406 -6.99555e-20)
(1.28573 0.164602 2.94092e-20)
(1.27781 0.150491 6.00669e-20)
(0.0107859 -0.00059405 2.85479e-20)
(0.169423 -0.00393878 4.65386e-20)
(0.439167 0.0341633 -4.65743e-19)
(0.746044 0.0922723 1.62434e-19)
(1.00181 0.149243 -1.36184e-19)
(1.17025 0.188421 -6.92299e-20)
(1.26147 0.208511 -9.39182e-20)
(1.30066 0.213938 -5.42039e-20)
(1.31096 0.210209 -1.26834e-19)
(1.30787 0.20169 2.25661e-19)
(1.29969 0.190949 3.45833e-20)
(1.29036 0.179118 6.33447e-20)
(1.28082 0.16784 -7.90542e-20)
(1.27267 0.153779 1.28964e-20)
(0.0193866 -0.00233378 3.80256e-20)
(0.200934 -0.0032729 -8.09266e-20)
(0.491951 0.0435855 1.59399e-19)
(0.803529 0.107266 -1.46434e-19)
(1.04793 0.164731 -2.04925e-19)
(1.19975 0.201542 -1.12992e-19)
(1.27649 0.218563 -1.57849e-19)
(1.30586 0.221432 7.47897e-20)
(1.31058 0.215978 4.75972e-20)
(1.30474 0.206423 -1.12569e-19)
(1.29536 0.195024 9.7366e-21)
(1.28553 0.182856 -5.035e-20)
(1.2758 0.171105 3.09489e-20)
(1.26745 0.157077 -4.9722e-20)
(0.0290853 -0.00384567 -1.74292e-19)
(0.234771 -0.00126852 1.27063e-19)
(0.545507 0.0548196 -1.00518e-19)
(0.85828 0.123187 1.75526e-20)
(1.08942 0.180344 2.79836e-19)
(1.22472 0.214387 7.9997e-20)
(1.2881 0.228279 2.64954e-19)
(1.30892 0.228704 -1.07484e-19)
(1.30904 0.221659 1.64056e-20)
(1.30103 0.211151 1.20852e-19)
(1.29074 0.199133 -5.4047e-20)
(1.28052 0.18662 -7.60621e-21)
(1.27065 0.174395 -3.11171e-20)
(1.26215 0.160382 5.67889e-21)
(0.0399194 -0.00505238 1.59263e-19)
(0.270731 0.00225565 2.13984e-20)
(0.599168 0.0677686 6.86165e-20)
(0.909841 0.139884 -6.7554e-20)
(1.12635 0.196002 -5.81562e-20)
(1.24554 0.226952 -9.84912e-20)
(1.29675 0.237705 6.90607e-20)
(1.31019 0.235807 9.76809e-20)
(1.30653 0.227292 -4.77125e-20)
(1.29683 0.215893 -5.51724e-20)
(1.28586 0.203282 5.30764e-20)
(1.27535 0.190408 2.33251e-20)
(1.26539 0.177706 -7.51411e-20)
(1.25677 0.163688 -3.93503e-20)
(0.0519139 -0.00586779 7.87514e-20)
(0.308548 0.00745219 -1.47223e-19)
(0.652292 0.0823083 1.85558e-19)
(0.957888 0.157222 5.3896e-20)
(1.15885 0.211643 -1.33566e-20)
(1.26259 0.239246 -8.49155e-20)
(1.30282 0.246884 -1.75044e-19)
(1.30997 0.242787 -1.20178e-19)
(1.30325 0.232904 1.13737e-19)
(1.29224 0.220661 -5.64052e-20)
(1.28075 0.20747 3.73866e-20)
(1.27003 0.194215 -4.76553e-20)
(1.26001 0.181031 4.97694e-20)
(1.25129 0.166989 -1.21174e-20)
(0.0650782 -0.00619811 -1.46644e-19)
(0.347896 0.0144346 -2.00185e-19)
(0.704285 0.0983009 2.13764e-20)
(1.00221 0.175085 3.38307e-20)
(1.18713 0.22722 7.23643e-20)
(1.27624 0.251283 -3.00946e-20)
(1.30668 0.255859 -2.67887e-20)
(1.3085 0.249682 1.18888e-19)
(1.29932 0.238516 5.569e-21)
(1.28729 0.225459 -3.21924e-20)
(1.27543 0.211693 -3.48511e-20)
(1.26456 0.198034 1.70075e-20)
(1.25451 0.184365 5.21746e-20)
(1.24572 0.170278 2.94786e-20)
(0.079402 -0.00594397 -1.08004e-21)
(0.388404 0.0232714 2.24474e-19)
(0.754617 0.115603 9.45354e-20)
(1.04269 0.193374 -1.06709e-19)
(1.21141 0.242698 6.89289e-20)
(1.28683 0.263082 5.65952e-20)
(1.30862 0.264669 4.52321e-20)
(1.30597 0.256522 -1.04345e-19)
(1.29483 0.244142 -4.9948e-20)
(1.28204 0.23029 3.81997e-20)
(1.2699 0.215945 4.37305e-21)
(1.25892 0.201857 -2.05419e-20)
(1.24888 0.1877 -2.6532e-20)
(1.24004 0.173547 -6.83013e-21)
(0.0948526 -0.00500361 3.89493e-20)
(0.429669 0.0339862 -1.70939e-20)
(0.802833 0.134074 -1.85632e-19)
(1.0793 0.211998 -6.73707e-20)
(1.23195 0.258049 -1.49194e-19)
(1.2947 0.274664 3.63491e-20)
(1.30891 0.273345 1.64999e-20)
(1.30255 0.26333 3.8327e-20)
(1.28986 0.249787 -1.84493e-20)
(1.27649 0.235149 2.69305e-20)
(1.26416 0.220218 -9.60069e-21)
(1.25313 0.205676 1.24176e-20)
(1.24312 0.191029 -1.15745e-21)
(1.23424 0.176789 -1.38442e-20)
(0.111373 -0.00327696 6.96221e-20)
(0.47127 0.0465606 -1.2043e-19)
(0.848554 0.153574 1.40659e-20)
(1.11206 0.230878 9.28605e-20)
(1.24899 0.273254 1.20588e-19)
(1.30012 0.286048 -8.25673e-20)
(1.30775 0.281916 4.84823e-20)
(1.29834 0.27012 6.91089e-21)
(1.28445 0.255452 -1.99334e-20)
(1.27066 0.240029 -2.04319e-20)
(1.25822 0.224501 2.34123e-20)
(1.24716 0.209481 2.27144e-20)
(1.23722 0.194343 -6.13464e-21)
(1.22834 0.179994 1.42806e-20)
(0.128879 -0.000670167 5.9603e-20)
(0.512784 0.060941 4.3953e-20)
(0.891481 0.17397 9.34132e-20)
(1.14104 0.249939 -3.64351e-20)
(1.26279 0.288294 -4.93467e-20)
(1.30337 0.297251 5.09058e-20)
(1.30534 0.2904 -5.28188e-20)
(1.29345 0.276899 -5.48989e-20)
(1.27864 0.261134 3.43259e-20)
(1.26456 0.244922 -2.02194e-20)
(1.25207 0.228783 -3.03938e-20)
(1.24103 0.213262 -2.20094e-20)
(1.23117 0.197633 1.35981e-20)
(1.2223 0.183154 -2.46079e-21)
(0.147265 0.00289993 -7.64764e-20)
(0.553798 0.0770451 3.49714e-20)
(0.931386 0.195133 -6.63676e-20)
(1.16633 0.269111 -1.41506e-20)
(1.2736 0.303158 5.72302e-20)
(1.30467 0.308288 3.39288e-21)
(1.30182 0.298811 -3.06823e-21)
(1.28794 0.283671 2.20725e-20)
(1.27245 0.266825 -2.17853e-20)
(1.25819 0.249814 2.1859e-20)
(1.2457 0.23305 1.57805e-20)
(1.23472 0.217008 1.62112e-20)
(1.22498 0.200888 -3.97357e-21)
(1.21615 0.186259 -2.25127e-21)
(0.1664 0.00750182 4.37524e-21)
(0.593916 0.0947682 2.27184e-20)
(0.968104 0.21694 -3.92472e-20)
(1.18807 0.288328 -8.97757e-21)
(1.28164 0.317832 -1.0017e-20)
(1.30422 0.319167 -6.46633e-21)
(1.29731 0.307158 -8.8761e-21)
(1.28186 0.290429 -1.80007e-20)
(1.26589 0.272512 9.29411e-21)
(1.25155 0.254692 9.8786e-21)
(1.23911 0.237289 -1.73318e-21)
(1.22822 0.220708 -8.30443e-22)
(1.21864 0.2041 -8.42599e-21)
(1.20986 0.189299 4.0191e-21)
(0.186135 0.0131865 3.67432e-21)
(0.63277 0.113988 -9.0714e-21)
(1.00153 0.239273 2.21869e-20)
(1.20639 0.307527 1.48522e-20)
(1.28713 0.332302 -5.08994e-21)
(1.3022 0.329896 -9.16514e-22)
(1.2919 0.315439 6.17518e-21)
(1.27525 0.297167 8.96846e-22)
(1.25898 0.278182 -1.58423e-21)
(1.24463 0.259541 -6.25134e-21)
(1.23229 0.241485 -1.65754e-22)
(1.22154 0.224348 -3.4405e-22)
(1.21214 0.207255 3.10498e-21)
(1.20344 0.192262 1.21257e-21)
(0.206306 0.0199855 3.11349e-21)
(0.670025 0.13457 -7.13714e-21)
(1.0316 0.262017 2.0502e-20)
(1.22144 0.326647 1.45343e-20)
(1.29028 0.346555 -4.14644e-21)
(1.29875 0.340473 -1.18202e-21)
(1.28568 0.323651 4.84384e-21)
(1.26814 0.30387 1.38523e-21)
(1.25171 0.283816 -1.52601e-21)
(1.23744 0.264344 -5.03001e-21)
(1.22525 0.245623 2.75114e-24)
(1.21468 0.227917 -1.13199e-22)
(1.20548 0.210342 1.71685e-21)
(1.1969 0.195139 6.17887e-22)
(0.226735 0.0279107 -9.5049e-22)
(0.705382 0.156368 2.23831e-20)
(1.05829 0.285061 -3.6912e-20)
(1.23338 0.345627 -1.2146e-20)
(1.29125 0.360575 -2.64107e-21)
(1.294 0.350894 -8.85131e-21)
(1.2787 0.331782 -8.55746e-21)
(1.26055 0.310521 -1.48098e-20)
(1.24408 0.289397 8.66274e-21)
(1.22996 0.269082 9.1851e-21)
(1.21797 0.249686 -2.51522e-21)
(1.20762 0.231401 -1.24891e-22)
(1.19867 0.213349 -3.60699e-21)
(1.19022 0.197918 2.0283e-22)
(0.247237 0.0369549 -7.99636e-20)
(0.738581 0.179228 3.95066e-20)
(1.08162 0.308296 -7.42285e-20)
(1.24237 0.364409 -9.36766e-21)
(1.29022 0.374341 6.23584e-20)
(1.28806 0.361149 -7.48927e-21)
(1.27102 0.339819 7.28989e-22)
(1.25249 0.3171 1.57936e-20)
(1.2361 0.294903 -1.26154e-20)
(1.22219 0.273737 9.99814e-21)
(1.21045 0.253657 8.51545e-21)
(1.20036 0.234787 5.2048e-21)
(1.19169 0.21626 -3.00765e-22)
(1.18343 0.200589 -7.97391e-22)
(0.267623 0.0470927 4.56899e-20)
(0.769402 0.202993 4.41935e-20)
(1.10162 0.331616 9.10337e-20)
(1.24855 0.382935 -1.68836e-20)
(1.28734 0.387834 -6.06941e-20)
(1.28101 0.371225 5.00325e-20)
(1.26266 0.34774 -3.88629e-20)
(1.24396 0.323585 -3.51307e-20)
(1.22777 0.300311 2.19881e-20)
(1.21414 0.278288 -1.31836e-20)
(1.20269 0.257519 -1.26615e-20)
(1.19291 0.23806 -7.32634e-21)
(1.18455 0.21906 2.48871e-21)
(1.1765 0.203139 -6.96222e-23)
(0.287701 0.0582828 5.75085e-20)
(0.797664 0.2275 -1.13862e-19)
(1.11835 0.354914 -1.68206e-21)
(1.25207 0.401149 9.5128e-20)
(1.28274 0.401028 8.89979e-20)
(1.27294 0.3811 -4.23052e-20)
(1.25367 0.355524 2.45871e-20)
(1.23498 0.329949 1.33826e-20)
(1.21908 0.305599 -1.42607e-20)
(1.2058 0.282716 -8.38536e-21)
(1.1947 0.261256 7.0002e-21)
(1.18526 0.241206 3.58652e-21)
(1.17726 0.221737 -2.04497e-22)
(1.16943 0.205554 -3.16716e-21)
(0.307286 0.0704695 4.86169e-20)
(0.823223 0.252584 -2.07702e-20)
(1.13189 0.378087 -1.71792e-19)
(1.25308 0.418996 -6.0245e-20)
(1.27654 0.413896 -1.43454e-19)
(1.26392 0.390753 3.4606e-20)
(1.24405 0.363142 1.51196e-20)
(1.22556 0.336167 1.72975e-20)
(1.21004 0.310742 1.26666e-21)
(1.19716 0.286999 8.38846e-21)
(1.18646 0.26485 -3.15998e-21)
(1.17742 0.244209 -1.90194e-21)
(1.16982 0.224287 2.53602e-22)
(1.16218 0.207831 2.42851e-21)
(0.326194 0.0835846 -2.73708e-21)
(0.845972 0.278082 2.66916e-19)
(1.14231 0.401032 6.9795e-20)
(1.25173 0.43642 -6.99024e-20)
(1.26884 0.426407 3.15589e-20)
(1.25398 0.400156 4.93727e-20)
(1.23384 0.370567 1.37753e-20)
(1.21569 0.342209 -3.85632e-20)
(1.20064 0.315715 -1.88759e-20)
(1.18823 0.291116 1.20609e-20)
(1.17798 0.26828 -3.3997e-22)
(1.16938 0.247048 -1.30766e-23)
(1.16224 0.226712 6.61459e-21)
(1.15475 0.209975 3.46013e-21)
(0.344253 0.0975485 -1.34496e-19)
(0.865839 0.303832 -2.53617e-19)
(1.14971 0.423647 7.82346e-21)
(1.24813 0.453366 8.47964e-20)