/*--------------------------------*- C++ -*----------------------------------*\
  =========                 |
  \\      /  F ield         | OpenFOAM: The Open Source CFD Toolbox
   \\    /   O peration     | Website:  https://openfoam.org
    \\  /    A nd           | Version:  7
     \\/     M anipulation  |
\*---------------------------------------------------------------------------*/
FoamFile
{
    version     2.0;
    format      ascii;
    class       volScalarField;
    location    "20";
    object      p;
}
// * * * * * * * * * * * * * * * * * * * * * * * * * * * * * * * * * * * * * //

dimensions      [0 2 -2 0 0 0 0];

internalField   nonuniform List<scalar> 
8500
(
-0.360631
-0.36412
-0.363521
-0.360679
-0.355938
-0.349503
-0.341662
-0.33272
-0.32289
-0.31222
-0.361699
-0.364998
-0.364274
-0.361317
-0.356468
-0.349935
-0.342002
-0.332985
-0.323076
-0.312227
-0.363829
-0.366751
-0.365776
-0.362588
-0.357525
-0.350795
-0.34268
-0.333511
-0.323442
-0.312233
-0.36701
-0.369367
-0.368016
-0.364484
-0.359101
-0.352077
-0.343688
-0.334289
-0.323981
-0.312225
-0.371223
-0.372833
-0.370983
-0.366993
-0.361185
-0.35377
-0.345015
-0.335309
-0.324677
-0.312181
-0.376447
-0.377127
-0.374658
-0.370101
-0.363763
-0.355862
-0.346649
-0.336554
-0.325514
-0.312074
-0.382654
-0.382228
-0.379021
-0.373786
-0.366819
-0.358336
-0.348574
-0.33801
-0.326471
-0.311869
-0.389814
-0.388105
-0.384045
-0.378029
-0.370334
-0.361178
-0.350776
-0.339658
-0.327525
-0.311525
-0.397891
-0.394726
-0.389702
-0.382802
-0.374286
-0.36437
-0.35324
-0.341481
-0.328654
-0.310994
-0.406841
-0.402056
-0.395959
-0.38808
-0.378655
-0.367895
-0.355951
-0.343466
-0.329834
-0.310224
-0.416621
-0.410051
-0.402778
-0.393832
-0.383417
-0.371739
-0.358901
-0.345602
-0.331047
-0.309154
-0.427179
-0.418664
-0.41012
-0.400025
-0.388549
-0.375887
-0.362084
-0.347888
-0.332278
-0.307723
-0.438456
-0.427841
-0.417937
-0.406623
-0.394028
-0.38033
-0.365502
-0.350331
-0.333525
-0.305868
-0.450381
-0.437521
-0.42618
-0.413588
-0.399828
-0.38506
-0.369168
-0.352956
-0.3348
-0.303536
-0.462872
-0.447633
-0.434789
-0.420874
-0.405924
-0.390072
-0.373105
-0.355812
-0.336156
-0.300725
-0.475833
-0.458098
-0.443699
-0.428435
-0.412287
-0.395365
-0.377348
-0.358983
-0.337723
-0.297567
-0.489151
-0.468826
-0.452837
-0.436214
-0.418883
-0.400935
-0.381946
-0.36258
-0.339641
-0.294181
-0.502696
-0.479714
-0.462121
-0.444148
-0.425672
-0.406779
-0.386969
-0.366737
-0.341795
-0.289951
-0.51632
-0.490653
-0.471459
-0.452163
-0.432602
-0.412896
-0.392549
-0.371784
-0.344534
-0.285154
-0.529863
-0.501519
-0.480749
-0.46017
-0.439599
-0.41925
-0.398804
-0.378384
-0.351932
-0.295709
-0.543157
-0.512186
-0.48988
-0.468063
-0.446543
-0.425677
-0.405446
-0.386275
-0.368425
-0.363948
-0.556028
-0.522521
-0.498735
-0.475724
-0.453282
-0.431884
-0.411729
-0.393217
-0.378656
-0.386859
-0.568311
-0.532395
-0.507199
-0.483041
-0.459686
-0.437673
-0.41728
-0.39863
-0.38387
-0.393138
-0.579849
-0.541681
-0.515161
-0.489911
-0.465654
-0.442953
-0.42208
-0.402904
-0.387184
-0.39525
-0.590502
-0.55026
-0.522516
-0.496238
-0.471103
-0.447668
-0.42615
-0.406227
-0.389319
-0.394828
-0.600138
-0.558018
-0.529161
-0.501932
-0.475952
-0.451758
-0.429479
-0.408632
-0.390339
-0.392602
-0.60864
-0.564843
-0.534992
-0.506899
-0.480121
-0.455158
-0.432039
-0.410143
-0.390342
-0.389133
-0.615897
-0.570628
-0.539909
-0.511045
-0.483523
-0.457797
-0.43379
-0.410771
-0.389416
-0.384698
-0.621802
-0.575266
-0.543809
-0.514272
-0.486069
-0.459598
-0.434679
-0.410502
-0.387594
-0.379414
-0.626247
-0.578648
-0.546586
-0.51648
-0.487664
-0.460478
-0.434642
-0.4093
-0.38487
-0.373319
-0.629123
-0.580665
-0.548132
-0.517563
-0.488207
-0.460344
-0.433605
-0.407113
-0.381212
-0.366415
-0.630314
-0.581204
-0.548336
-0.517414
-0.487595
-0.4591
-0.431486
-0.403878
-0.376574
-0.358674
-0.629702
-0.580149
-0.547085
-0.51592
-0.485721
-0.456648
-0.428196
-0.399522
-0.370896
-0.350059
-0.627163
-0.577384
-0.544265
-0.51297
-0.482476
-0.452886
-0.423647
-0.393969
-0.36411
-0.340518
-0.62257
-0.57279
-0.53976
-0.508452
-0.477752
-0.447712
-0.417745
-0.387139
-0.356147
-0.329998
-0.615795
-0.56625
-0.533456
-0.502253
-0.47144
-0.441023
-0.4104
-0.37895
-0.346934
-0.318441
-0.606713
-0.557649
-0.525243
-0.494265
-0.463436
-0.432723
-0.401524
-0.369324
-0.336401
-0.305787
-0.595203
-0.546878
-0.515013
-0.484384
-0.45364
-0.422718
-0.391031
-0.358189
-0.324484
-0.291981
-0.581151
-0.533834
-0.502666
-0.472512
-0.441959
-0.410921
-0.378844
-0.345474
-0.311122
-0.27697
-0.564455
-0.518423
-0.488113
-0.458561
-0.428307
-0.397254
-0.364895
-0.331122
-0.296266
-0.260708
-0.545028
-0.500565
-0.471273
-0.442454
-0.412612
-0.381649
-0.349124
-0.315082
-0.279873
-0.243155
-0.522792
-0.480188
-0.452076
-0.42412
-0.394808
-0.36405
-0.331482
-0.297315
-0.261912
-0.22428
-0.497697
-0.457244
-0.430472
-0.403512
-0.374849
-0.344414
-0.311936
-0.277794
-0.242366
-0.204062
-0.469712
-0.431699
-0.406427
-0.380592
-0.352702
-0.322715
-0.290467
-0.256509
-0.221229
-0.182491
-0.438832
-0.403542
-0.379922
-0.355344
-0.328351
-0.298943
-0.267072
-0.233461
-0.19851
-0.159568
-0.405074
-0.372782
-0.350964
-0.327771
-0.301802
-0.273107
-0.241763
-0.208668
-0.174234
-0.135309
-0.368485
-0.339451
-0.319578
-0.297894
-0.273076
-0.245232
-0.214572
-0.182163
-0.148434
-0.109742
-0.329137
-0.303606
-0.285811
-0.265758
-0.242219
-0.215367
-0.185549
-0.153997
-0.121163
-0.0828698
-0.287133
-0.265329
-0.249735
-0.23143
-0.209297
-0.18358
-0.154763
-0.124249
-0.0925271
-0.0546334
-0.2426
-0.224724
-0.211445
-0.194999
-0.174396
-0.149957
-0.122306
-0.0930164
-0.0626697
-0.025173
-0.195694
-0.18192
-0.171058
-0.156575
-0.137627
-0.114607
-0.0882849
-0.0603654
-0.0312609
0.0047641
-0.146593
-0.137069
-0.128713
-0.116292
-0.0991185
-0.0776615
-0.0528286
-0.0264493
0.00120547
0.0357744
-0.0954999
-0.0903438
-0.0845708
-0.0743049
-0.059022
-0.0392688
-0.016085
0.00859548
0.0346106
0.0676918
-0.0426349
-0.0419384
-0.0388133
-0.0307851
-0.017508
0.000401196
0.0217785
0.0446106
0.0688356
0.100299
0.011773
0.00792355
0.00836432
0.0140751
0.0252366
0.0411624
0.0605738
0.0814108
0.10371
0.133379
0.0674477
0.0590362
0.0567437
0.0600684
0.0690093
0.0828135
0.100096
0.118791
0.139033
0.166641
0.124135
0.111149
0.106096
0.106974
0.113595
0.125141
0.140125
0.156546
0.174619
0.199609
0.181561
0.164008
0.156181
0.154562
0.15877
0.16792
0.18043
0.194467
0.210251
0.231571
0.239443
0.21735
0.206747
0.20259
0.204303
0.210924
0.220766
0.232255
0.245233
0.261379
0.297487
0.270903
0.257535
0.250816
0.249969
0.253943
0.260932
0.269525
0.277852
0.284592
0.355396
0.324385
0.308278
0.29899
0.295545
0.296813
0.300883
0.306308
0.307498
0.295221
0.412871
0.377517
0.358707
0.346858
0.34081
0.339384
0.340628
0.343258
0.341627
0.328959
0.469603
0.430005
0.408542
0.394158
0.385516
0.381425
0.379933
0.37989
0.376372
0.365118
0.525276
0.481555
0.457501
0.440619
0.429406
0.422674
0.418488
0.415747
0.410054
0.398887
0.579579
0.531873
0.505302
0.48597
0.472218
0.462872
0.456019
0.450577
0.442582
0.430678
0.632202
0.580668
0.551666
0.529944
0.5137
0.501777
0.492285
0.484158
0.473845
0.460748
0.682839
0.627656
0.596318
0.572282
0.553607
0.539157
0.527068
0.516283
0.503645
0.48906
0.731197
0.67256
0.638996
0.612734
0.591703
0.574795
0.560167
0.546773
0.531823
0.515557
0.776994
0.715113
0.679445
0.651059
0.627767
0.608489
0.591403
0.575474
0.558258
0.540205
0.819962
0.755065
0.717425
0.687031
0.66159
0.640049
0.62061
0.602251
0.582849
0.56297
0.859854
0.792179
0.752709
0.720439
0.692978
0.669303
0.64764
0.626983
0.605507
0.583822
0.896436
0.826234
0.785088
0.751087
0.721752
0.696092
0.672357
0.649559
0.626147
0.602724
0.9295
0.85703
0.81437
0.778795
0.74775
0.720274
0.69464
0.669881
0.644696
0.619641
0.958854
0.884384
0.840381
0.803402
0.770825
0.741719
0.714379
0.687861
0.661085
0.634537
0.984331
0.908136
0.862968
0.824764
0.790848
0.760314
0.731479
0.703421
0.675253
0.647378
1.00579
0.928145
0.881997
0.842758
0.807707
0.775961
0.745858
0.716493
0.687146
0.658133
1.0231
0.944295
0.897356
0.85728
0.821308
0.788578
0.757445
0.727021
0.696717
0.666773
1.03617
0.956491
0.908956
0.868245
0.831575
0.7981
0.766184
0.734957
0.70393
0.673274
1.04492
0.964661
0.916726
0.875591
0.838452
0.804475
0.772034
0.740268
0.708754
0.677619
1.04931
0.968758
0.920623
0.879274
0.8419
0.807671
0.774967
0.742929
0.711171
0.679794
1.04931
0.968758
0.920623
0.879274
0.8419
0.807671
0.774967
0.742929
0.711171
0.679794
1.04492
0.964661
0.916726
0.875591
0.838452
0.804475
0.772034
0.740268
0.708754
0.677619
1.03617
0.956491
0.908956
0.868245
0.831575
0.7981
0.766184
0.734957
0.70393
0.673274
1.0231
0.944295
0.897356
0.85728
0.821308
0.788578
0.757445
0.727021
0.696717
0.666773
1.00579
0.928145
0.881997
0.842758
0.807707
0.775961
0.745858
0.716493
0.687146
0.658133
0.984331
0.908136
0.862968
0.824764
0.790848
0.760314
0.731479
0.703421
0.675253
0.647378
0.958854
0.884384
0.840381
0.803402
0.770825
0.741719
0.714379
0.687861
0.661085
0.634537
0.9295
0.85703
0.81437
0.778795
0.74775
0.720274
0.69464
0.669881
0.644696
0.619641
0.896436
0.826234
0.785088
0.751087
0.721752
0.696092
0.672357
0.649559
0.626147
0.602724
0.859854
0.792179
0.752709
0.720439
0.692978
0.669303
0.64764
0.626983
0.605507
0.583822
0.819962
0.755065
0.717425
0.687031
0.66159
0.640049
0.62061
0.602251
0.582849
0.56297
0.776993
0.715113
0.679445
0.651059
0.627767
0.608489
0.591403
0.575474
0.558258
0.540205
0.731197
0.67256
0.638996
0.612734
0.591703
0.574795
0.560167
0.546773
0.531823
0.515557
0.682839
0.627656
0.596318
0.572282
0.553607
0.539157
0.527068
0.516283
0.503645
0.48906
0.632202
0.580668
0.551666
0.529944
0.5137
0.501777
0.492285
0.484158
0.473845
0.460748
0.579579
0.531873
0.505302
0.48597
0.472218
0.462872
0.456019
0.450577
0.442582
0.430678
0.525276
0.481555
0.457501
0.440619
0.429406
0.422674
0.418488
0.415747
0.410054
0.398887
0.469603
0.430005
0.408542
0.394158
0.385516
0.381425
0.379933
0.37989
0.376372
0.365118
0.412871
0.377517
0.358707
0.346858
0.34081
0.339384
0.340628
0.343258
0.341627
0.328959
0.355396
0.324385
0.308278
0.29899
0.295545
0.296813
0.300883
0.306308
0.307498
0.295221
0.297487
0.270903
0.257535
0.250816
0.249969
0.253943
0.260932
0.269525
0.277852
0.284592
0.239443
0.21735
0.206747
0.20259
0.204303
0.210924
0.220766
0.232255
0.245233
0.261379
0.181561
0.164008
0.156181
0.154562
0.15877
0.16792
0.18043
0.194467
0.210251
0.231571
0.124135
0.111149
0.106096
0.106974
0.113595
0.125141
0.140125
0.156546
0.174619
0.199609
0.0674477
0.0590362
0.0567437
0.0600684
0.0690093
0.0828135
0.100096
0.118791
0.139033
0.166641
0.011773
0.00792355
0.00836432
0.0140751
0.0252366
0.0411624
0.0605738
0.0814108
0.10371
0.133379
-0.0426349
-0.0419384
-0.0388133
-0.0307851
-0.017508
0.000401195
0.0217785
0.0446106
0.0688356
0.100299
-0.0954999
-0.0903438
-0.0845708
-0.0743049
-0.059022
-0.0392688
-0.016085
0.00859547
0.0346106
0.0676918
-0.146593
-0.137069
-0.128713
-0.116292
-0.0991185
-0.0776615
-0.0528286
-0.0264493
0.00120547
0.0357744
-0.195694
-0.18192
-0.171058
-0.156575
-0.137627
-0.114607
-0.0882849
-0.0603654
-0.0312609
0.00476409
-0.2426
-0.224724
-0.211445
-0.194999
-0.174396
-0.149957
-0.122306
-0.0930164
-0.0626697
-0.025173
-0.287133
-0.265329
-0.249735
-0.23143
-0.209297
-0.18358
-0.154763
-0.124249
-0.0925271
-0.0546334
-0.329137
-0.303606
-0.285811
-0.265758
-0.242219
-0.215367
-0.185549
-0.153997
-0.121163
-0.0828698
-0.368485
-0.339451
-0.319578
-0.297894
-0.273076
-0.245232
-0.214572
-0.182163
-0.148434
-0.109742
-0.405074
-0.372782
-0.350964
-0.327771
-0.301802
-0.273107
-0.241763
-0.208668
-0.174234
-0.135309
-0.438832
-0.403542
-0.379922
-0.355344
-0.328351
-0.298943
-0.267072
-0.233461
-0.19851
-0.159568
-0.469712
-0.431699
-0.406427
-0.380592
-0.352702
-0.322715
-0.290467
-0.256509
-0.221229
-0.182491
-0.497697
-0.457244
-0.430472
-0.403512
-0.374849
-0.344414
-0.311936
-0.277794
-0.242366
-0.204062
-0.522792
-0.480188
-0.452076
-0.42412
-0.394808
-0.36405
-0.331482
-0.297315
-0.261912
-0.22428
-0.545028
-0.500565
-0.471273
-0.442454
-0.412612
-0.381649
-0.349124
-0.315082
-0.279873
-0.243155
-0.564455
-0.518423
-0.488113
-0.458561
-0.428307
-0.397254
-0.364895
-0.331122
-0.296266
-0.260708
-0.581151
-0.533834
-0.502666
-0.472512
-0.441959
-0.410921
-0.378844
-0.345474
-0.311122
-0.27697
-0.595203
-0.546878
-0.515013
-0.484384
-0.45364
-0.422718
-0.391031
-0.358189
-0.324484
-0.291981
-0.606713
-0.557649
-0.525243
-0.494265
-0.463436
-0.432723
-0.401524
-0.369324
-0.336401
-0.305787
-0.615795
-0.56625
-0.533456
-0.502253
-0.47144
-0.441023
-0.4104
-0.37895
-0.346934
-0.318441
-0.62257
-0.57279
-0.53976
-0.508452
-0.477752
-0.447712
-0.417745
-0.387139
-0.356147
-0.329998
-0.627163
-0.577384
-0.544265
-0.51297
-0.482476
-0.452886
-0.423647
-0.393969
-0.36411
-0.340518
-0.629702
-0.580149
-0.547085
-0.51592
-0.485721
-0.456649
-0.428196
-0.399522
-0.370896
-0.350059
-0.630314
-0.581204
-0.548336
-0.517414
-0.487595
-0.4591
-0.431486
-0.403878
-0.376574
-0.358674
-0.629123
-0.580665
-0.548132
-0.517563
-0.488207
-0.460344
-0.433605
-0.407113
-0.381212
-0.366415
-0.626247
-0.578648
-0.546586
-0.51648
-0.487664
-0.460478
-0.434642
-0.4093
-0.38487
-0.373319
-0.621802
-0.575266
-0.543809
-0.514272
-0.486069
-0.459598
-0.434679
-0.410502
-0.387594
-0.379414
-0.615897
-0.570628
-0.539909
-0.511045
-0.483523
-0.457797
-0.43379
-0.410771
-0.389416
-0.384698
-0.60864
-0.564843
-0.534992
-0.506899
-0.480121
-0.455158
-0.432039
-0.410143
-0.390342
-0.389133
-0.600138
-0.558018
-0.529161
-0.501932
-0.475952
-0.451758
-0.429479
-0.408632
-0.390339
-0.392602
-0.590502
-0.55026
-0.522516
-0.496238
-0.471103
-0.447668
-0.42615
-0.406227
-0.389319
-0.394828
-0.579849
-0.541681
-0.515161
-0.489911
-0.465654
-0.442953
-0.42208
-0.402904
-0.387184
-0.39525
-0.568311
-0.532395
-0.507199
-0.483041
-0.459686
-0.437673
-0.41728
-0.39863
-0.38387
-0.393138
-0.556028
-0.522521
-0.498735
-0.475724
-0.453282
-0.431884
-0.411729
-0.393217
-0.378656
-0.386859
-0.543157
-0.512186
-0.48988
-0.468063
-0.446543
-0.425677
-0.405446
-0.386275
-0.368425
-0.363948
-0.529863
-0.501519
-0.480749
-0.46017
-0.439599
-0.41925
-0.398804
-0.378384
-0.351932
-0.295709
-0.51632
-0.490653
-0.471459
-0.452163
-0.432602
-0.412896
-0.392549
-0.371784
-0.344534
-0.285154
-0.502696
-0.479714
-0.462121
-0.444148
-0.425672
-0.406779
-0.386969
-0.366737
-0.341795
-0.289951
-0.489151
-0.468826
-0.452837
-0.436214
-0.418883
-0.400935
-0.381946
-0.36258
-0.339641
-0.294181
-0.475833
-0.458098
-0.443699
-0.428435
-0.412287
-0.395365
-0.377348
-0.358983
-0.337723
-0.297567
-0.462872
-0.447633
-0.434789
-0.420874
-0.405924
-0.390072
-0.373105
-0.355812
-0.336156
-0.300725
-0.450381
-0.437521
-0.42618
-0.413588
-0.399828
-0.38506
-0.369168
-0.352956
-0.3348
-0.303536
-0.438456
-0.427841
-0.417937
-0.406623
-0.394028
-0.38033
-0.365502
-0.350331
-0.333525
-0.305868
-0.427179
-0.418664
-0.41012
-0.400025
-0.388549
-0.375887
-0.362084
-0.347888
-0.332278
-0.307723
-0.416621
-0.410051
-0.402778
-0.393832
-0.383417
-0.371739
-0.358901
-0.345602
-0.331047
-0.309154
-0.406841
-0.402056
-0.395959
-0.38808
-0.378655
-0.367895
-0.355951
-0.343466
-0.329834
-0.310224
-0.397891
-0.394726
-0.389702
-0.382802
-0.374286
-0.36437
-0.35324
-0.341481
-0.328654
-0.310994
-0.389814
-0.388105
-0.384045
-0.378029
-0.370334
-0.361178
-0.350776
-0.339658
-0.327525
-0.311525
-0.382654
-0.382228
-0.379021
-0.373786
-0.366819
-0.358336
-0.348574
-0.33801
-0.326471
-0.311869
-0.376447
-0.377127
-0.374658
-0.370101
-0.363763
-0.355862
-0.346649
-0.336554
-0.325514
-0.312074
-0.371223
-0.372833
-0.370983
-0.366993
-0.361185
-0.35377
-0.345015
-0.335309
-0.324677
-0.312181
-0.36701
-0.369367
-0.368016
-0.364484
-0.359101
-0.352077
-0.343688
-0.334289
-0.323981
-0.312225
-0.363829
-0.366751
-0.365776
-0.362588
-0.357525
-0.350795
-0.34268
-0.333511
-0.323442
-0.312233
-0.361699
-0.364998
-0.364274
-0.361317
-0.356468
-0.349935
-0.342002
-0.332985
-0.323076
-0.312227
-0.360631
-0.36412
-0.363521
-0.360679
-0.355938
-0.349503
-0.341662
-0.33272
-0.32289
-0.31222
-0.302496
-0.28878
-0.274695
-0.259546
-0.243762
-0.227658
-0.211468
-0.195428
-0.179717
-0.164481
-0.149825
-0.135825
-0.122532
-0.109973
-0.0981668
-0.0871034
-0.0767979
-0.0671837
-0.0583441
-0.0500402
-0.0426569
-0.0353701
-0.0296124
-0.0226808
-0.019275
-0.011078
-0.0122624
0.00131569
-0.0106205
0.018949
-0.303125
-0.289103
-0.274967
-0.259771
-0.243948
-0.22782
-0.211612
-0.195559
-0.179837
-0.164591
-0.149927
-0.135919
-0.122617
-0.11005
-0.0982359
-0.0871649
-0.0768522
-0.0672314
-0.0583855
-0.0500761
-0.0426875
-0.0353964
-0.029634
-0.0227001
-0.0192884
-0.0110938
-0.0122664
0.0012965
-0.0106091
0.0189079
-0.304377
-0.289744
-0.275508
-0.260219
-0.24432
-0.228143
-0.211899
-0.195819
-0.180076
-0.164812
-0.15013
-0.136105
-0.122787
-0.110204
-0.0983737
-0.0872876
-0.0769606
-0.0673265
-0.0584683
-0.0501476
-0.0427486
-0.035449
-0.0296769
-0.0227386
-0.0193151
-0.0111253
-0.0122746
0.00125818
-0.0105864
0.018826
-0.306242
-0.290696
-0.27631
-0.260883
-0.24487
-0.228621
-0.212325
-0.196206
-0.180432
-0.165141
-0.150433
-0.136383
-0.123041
-0.110433
-0.0985798
-0.0874712
-0.0771229
-0.0674688
-0.058592
-0.0502547
-0.0428399
-0.0355275
-0.0297412
-0.0227962
-0.0193551
-0.0111724
-0.0122867
0.00120087
-0.0105525
0.0187037
-0.308704
-0.29195
-0.277363
-0.261754
-0.245593
-0.22925
-0.212886
-0.196717
-0.180903
-0.165576
-0.150835
-0.136752
-0.123377
-0.110738
-0.0988535
-0.087715
-0.0773383
-0.0676577
-0.0587564
-0.0503968
-0.0429612
-0.0356318
-0.0298265
-0.0228727
-0.0194081
-0.011235
-0.0123029
0.00112478
-0.0105075
0.0185418
-0.311741
-0.29349
-0.278654
-0.26282
-0.246478
-0.230021
-0.213576
-0.197347
-0.181485
-0.166115
-0.151333
-0.13721
-0.123796
-0.111117
-0.0991937
-0.0880181
-0.0776063
-0.0678927
-0.0589609
-0.0505737
-0.043112
-0.0357616
-0.0299325
-0.0229679
-0.019474
-0.0113129
-0.0123229
0.00103015
-0.0104517
0.0183412
-0.315324
-0.2953
-0.280164
-0.264067
-0.247514
-0.230927
-0.214388
-0.198091
-0.182174
-0.166754
-0.151925
-0.137756
-0.124294
-0.111568
-0.0995993
-0.0883796
-0.0779259
-0.068173
-0.0592047
-0.0507845
-0.0432919
-0.0359163
-0.0300589
-0.0230814
-0.0195525
-0.0114059
-0.0123468
0.00091733
-0.0103855
0.018103
-0.319414
-0.297361
-0.281872
-0.265477
-0.248688
-0.231955
-0.215314
-0.198943
-0.182965
-0.167491
-0.152608
-0.138385
-0.12487
-0.11209
-0.100069
-0.0887982
-0.078296
-0.0684977
-0.0594871
-0.0510287
-0.0435001
-0.0360954
-0.0302051
-0.0232128
-0.0196433
-0.0115138
-0.0123745
0.00078669
-0.010309
0.0178286
-0.323967
-0.299652
-0.283753
-0.267031
-0.249984
-0.233094
-0.216345
-0.199896
-0.183853
-0.16832
-0.153379
-0.139097
-0.125521
-0.112682
-0.100601
-0.0892726
-0.0787155
-0.0688657
-0.0598071
-0.0513055
-0.043736
-0.0362985
-0.0303707
-0.0233619
-0.019746
-0.0116361
-0.0124058
0.000638672
-0.0102228
0.0175196
-0.32892
-0.302148
-0.285778
-0.268704
-0.251386
-0.234332
-0.217472
-0.200942
-0.184832
-0.169237
-0.154234
-0.139887
-0.126246
-0.11334
-0.101193
-0.0898011
-0.0791829
-0.0692758
-0.0601637
-0.0516139
-0.0439987
-0.0365247
-0.0305551
-0.023528
-0.0198604
-0.0117725
-0.0124407
0.000473768
-0.0101273
0.0171775
-0.334196
-0.304824
-0.287914
-0.270471
-0.252877
-0.235656
-0.218685
-0.202075
-0.185897
-0.170237
-0.155168
-0.140753
-0.127041
-0.114063
-0.101844
-0.0903821
-0.0796969
-0.0697267
-0.0605558
-0.051953
-0.0442875
-0.0367733
-0.0307575
-0.0237107
-0.0199859
-0.0119227
-0.012479
0.000292514
-0.0100229
0.0168042
-0.339689
-0.307654
-0.290123
-0.272303
-0.254438
-0.237051
-0.219974
-0.203286
-0.187042
-0.171316
-0.156179
-0.141691
-0.127903
-0.114848
-0.102552
-0.0910137
-0.0802557
-0.070217
-0.060982
-0.0523216
-0.0446012
-0.0370437
-0.0309773
-0.0239094
-0.0201221
-0.0120862
-0.0125207
9.54915e-05
-0.00991017
0.0164016
-0.34525
-0.310611
-0.292368
-0.274169
-0.25605
-0.238506
-0.221329
-0.204568
-0.188259
-0.172468
-0.157261
-0.142698
-0.12883
-0.115692
-0.103314
-0.0916942
-0.0808579
-0.0707453
-0.0614412
-0.0527188
-0.044939
-0.0373348
-0.0312139
-0.0241235
-0.0202685
-0.0122626
-0.0125656
-0.000116687
-0.00978971
0.0159717
-0.350669
-0.31366
-0.294607
-0.276031
-0.257692
-0.240005
-0.222741
-0.205915
-0.189545
-0.17369
-0.158412
-0.143771
-0.129819
-0.116595
-0.104128
-0.092422
-0.0815021
-0.0713106
-0.0619323
-0.0531434
-0.0453
-0.0376461
-0.0314664
-0.0243525
-0.0204248
-0.0124514
-0.0126138
-0.000343384
-0.00966208
0.0155166
-0.355637
-0.316737
-0.296787
-0.277845
-0.25934
-0.241535
-0.224198
-0.207316
-0.190891
-0.174974
-0.159625
-0.144905
-0.130867
-0.117551
-0.104992
-0.0931942
-0.0821855
-0.0719103
-0.0624532
-0.0535938
-0.0456825
-0.037976
-0.0317337
-0.0245954
-0.02059
-0.012652
-0.0126647
-0.000583893
-0.00952771
0.0150383
-0.359656
-0.319722
-0.298855
-0.279565
-0.260963
-0.243074
-0.225681
-0.208755
-0.192281
-0.176306
-0.160888
-0.146087
-0.13196
-0.118551
-0.105896
-0.0940024
-0.082901
-0.072538
-0.0629983
-0.0540652
-0.0460826
-0.0383214
-0.032013
-0.0248501
-0.0207625
-0.0128631
-0.0127178
-0.00083732
-0.00938696
0.0145389
-0.362084
-0.322579
-0.300843
-0.281184
-0.262556
-0.24462
-0.227191
-0.210231
-0.193715
-0.177684
-0.162196
-0.147314
-0.133097
-0.119591
-0.106836
-0.0948441
-0.0836462
-0.073192
-0.0635662
-0.0545564
-0.0464995
-0.0386819
-0.0323045
-0.0251166
-0.0209431
-0.0130848
-0.0127744
-0.00110282
-0.00924197
0.0140208
-0.362462
-0.325403
-0.30283
-0.282742
-0.264164
-0.246237
-0.2288
-0.211821
-0.195271
-0.179188
-0.16363
-0.148663
-0.134348
-0.120737
-0.107874
-0.0957721
-0.0844677
-0.0739127
-0.0641917
-0.055097
-0.0469583
-0.0390775
-0.0326253
-0.0254075
-0.0211434
-0.0133232
-0.0128426
-0.00138109
-0.00909868
0.013486
-0.358716
-0.326853
-0.304317
-0.283994
-0.265654
-0.24787
-0.230498
-0.213548
-0.196995
-0.180878
-0.165261
-0.150211
-0.135796
-0.122071
-0.109086
-0.0968598
-0.085432
-0.0747587
-0.064925
-0.0557289
-0.0474925
-0.0395349
-0.0329944
-0.0257371
-0.0213709
-0.0135848
-0.0129223
-0.00167531
-0.00895306
0.0129348
-0.339893
-0.322877
-0.304074
-0.28408
-0.266252
-0.24877
-0.231549
-0.214686
-0.19818
-0.182079
-0.16645
-0.151366
-0.136896
-0.123102
-0.110036
-0.0977232
-0.0862038
-0.0754408
-0.0655162
-0.0562409
-0.0479189
-0.0399053
-0.033278
-0.0260083
-0.0215264
-0.0138187
-0.0129369
-0.00197921
-0.00874656
0.012366
-0.287733
-0.313411
-0.303798
-0.28416
-0.26651
-0.249055
-0.231722
-0.21472
-0.198084
-0.181876
-0.166169
-0.151034
-0.13654
-0.122742
-0.109686
-0.0973946
-0.0859015
-0.0751737
-0.0652766
-0.0560459
-0.0477388
-0.0397888
-0.0331408
-0.0259852
-0.0213975
-0.0139301
-0.0127461
-0.00232457
-0.00835781
0.0116527
-0.268153
-0.300019
-0.295781
-0.277939
-0.261778
-0.245468
-0.228928
-0.212531
-0.196382
-0.180571
-0.165191
-0.150325
-0.13605
-0.122428
-0.109511
-0.0973292
-0.0859169
-0.0752521
-0.065393
-0.0561997
-0.0478946
-0.03998
-0.0332895
-0.0262059
-0.0214918
-0.0142128
-0.0127116
-0.00277612
-0.00804167
0.0107882
-0.260229
-0.288089
-0.286022
-0.269911
-0.255246
-0.240234
-0.224692
-0.209099
-0.193621
-0.178373
-0.163467
-0.149
-0.135058
-0.12171
-0.109017
-0.097015
-0.0857435
-0.075191
-0.0654111
-0.0562868
-0.0480116
-0.0401495
-0.0334363
-0.0264283
-0.0216061
-0.0145037
-0.0127104
-0.00323027
-0.00776471
0.00989305
-0.254262
-0.276858
-0.276403
-0.261907
-0.248454
-0.234619
-0.220058
-0.20528
-0.190495
-0.175838
-0.161437
-0.1474
-0.133821
-0.120779
-0.108339
-0.0965449
-0.08544
-0.0750229
-0.0653432
-0.0563057
-0.0480764
-0.0402797
-0.0335557
-0.0266327
-0.0217095
-0.0147929
-0.0127064
-0.00370009
-0.00747905
0.00894549
-0.2484
-0.265873
-0.266563
-0.253636
-0.241262
-0.228547
-0.214987
-0.201061
-0.187014
-0.172995
-0.159143
-0.145577
-0.132399
-0.119695
-0.107537
-0.0959773
-0.0850612
-0.074798
-0.0652345
-0.0562964
-0.0481244
-0.0404007
-0.0336735
-0.0268394
-0.0218199
-0.0150924
-0.012711
-0.00419124
-0.00718987
0.00794365
-0.241983
-0.254895
-0.256196
-0.2448
-0.233475
-0.221862
-0.20934
-0.196324
-0.183077
-0.16976
-0.156516
-0.143476
-0.130749
-0.118428
-0.106591
-0.0952971
-0.084598
-0.0745119
-0.0650845
-0.0562606
-0.0481593
-0.0405167
-0.0337959
-0.0270531
-0.0219445
-0.0154048
-0.0127326
-0.0047014
-0.00690805
0.00689457
-0.234555
-0.243665
-0.245193
-0.235298
-0.225039
-0.21452
-0.203071
-0.191018
-0.178635
-0.166083
-0.153512
-0.141057
-0.128834
-0.116944
-0.10547
-0.0944801
-0.0840302
-0.0741484
-0.06488
-0.0561884
-0.048174
-0.0406224
-0.0339197
-0.027271
-0.0220831
-0.0157281
-0.012774
-0.0052269
-0.00664056
0.00580681
-0.225819
-0.231966
-0.233486
-0.225067
-0.215919
-0.206499
-0.196152
-0.185117
-0.173656
-0.161932
-0.150096
-0.138286
-0.126624
-0.115216
-0.104152
-0.0935062
-0.0833409
-0.0736932
-0.0646099
-0.0560708
-0.0481616
-0.0407127
-0.0340414
-0.0274905
-0.0222352
-0.0160602
-0.0128372
-0.00576418
-0.00639348
0.0046903
-0.215641
-0.219647
-0.221037
-0.214059
-0.206082
-0.197777
-0.188562
-0.178592
-0.16811
-0.157277
-0.146238
-0.135135
-0.124091
-0.113219
-0.102613
-0.0923554
-0.0825133
-0.0731326
-0.0642629
-0.0558991
-0.0481155
-0.0407825
-0.034158
-0.0277089
-0.0224001
-0.0163993
-0.0129242
-0.00630938
-0.00617315
0.0035571
-0.204003
-0.206617
-0.207846
-0.202265
-0.195514
-0.188349
-0.18029
-0.171428
-0.161977
-0.152091
-0.141911
-0.131574
-0.121208
-0.110927
-0.100831
-0.0910071
-0.0815293
-0.0724514
-0.0638264
-0.0556633
-0.0480279
-0.0408262
-0.0342654
-0.0279232
-0.0225767
-0.0167432
-0.0130367
-0.00685811
-0.00598587
0.00242156
-0.190987
-0.192852
-0.193961
-0.189723
-0.184238
-0.178233
-0.171348
-0.163626
-0.15525
-0.146362
-0.137095
-0.127583
-0.117951
-0.108316
-0.0987822
-0.0894406
-0.0803705
-0.0716336
-0.063287
-0.0553522
-0.0478898
-0.0408367
-0.0343584
-0.0281294
-0.0227627
-0.0170891
-0.0131751
-0.00740555
-0.00583731
0.00130009
-0.176762
-0.178401
-0.179481
-0.176518
-0.172313
-0.167481
-0.161774
-0.155212
-0.147941
-0.140091
-0.131785
-0.123148
-0.114304
-0.105369
-0.0964481
-0.087637
-0.0790192
-0.0706632
-0.0626305
-0.0549539
-0.0476914
-0.0408063
-0.0344308
-0.0283227
-0.0229548
-0.0174337
-0.013339
-0.00794642
-0.00573209
0.000210763
-0.161581
-0.16338
-0.164547
-0.162779
-0.159838
-0.156174
-0.151637
-0.146236
-0.140086
-0.1333
-0.12599
-0.118271
-0.110261
-0.102074
-0.0938147
-0.0855809
-0.0774598
-0.0695253
-0.0618433
-0.0544566
-0.0474223
-0.0407264
-0.0344754
-0.0284978
-0.0231487
-0.0177731
-0.0135266
-0.00847513
-0.00567335
-0.000827213
-0.145757
-0.14797
-0.149343
-0.148677
-0.146948
-0.144426
-0.14103
-0.136774
-0.131743
-0.126032
-0.119738
-0.112967
-0.105828
-0.0984298
-0.0908755
-0.0832627
-0.0756807
-0.0682075
-0.0609131
-0.0538486
-0.0470719
-0.040588
-0.0344844
-0.0286482
-0.0233391
-0.0181029
-0.0137348
-0.00898579
-0.00566238
-0.00179436
-0.129637
-0.132395
-0.134077
-0.13441
-0.13381
-0.132377
-0.130078
-0.12693
-0.122996
-0.11835
-0.113077
-0.10727
-0.101026
-0.0944478
-0.0876339
-0.08068
-0.0736755
-0.0667012
-0.05983
-0.0531199
-0.0466304
-0.0403822
-0.0344497
-0.0287673
-0.0235195
-0.0184178
-0.0139589
-0.0094723
-0.00569818
-0.00267198
-0.113572
-0.116908
-0.118969
-0.120187
-0.120608
-0.12019
-0.118921
-0.116826
-0.113947
-0.110341
-0.106076
-0.10123
-0.095892
-0.0901525
-0.0841046
-0.0778396
-0.0714454
-0.0650033
-0.0585882
-0.0522631
-0.0460896
-0.0401011
-0.034363
-0.0288481
-0.023683
-0.0187124
-0.0141931
-0.00992859
-0.00577735
-0.00344332
-0.0978864
-0.10176
-0.104235
-0.106219
-0.107536
-0.108037
-0.107716
-0.106601
-0.104718
-0.102105
-0.0988174
-0.0949166
-0.0904783
-0.085583
-0.0803148
-0.0747591
-0.0689999
-0.0631173
-0.0571868
-0.0512744
-0.0454437
-0.0397379
-0.0342172
-0.0288839
-0.0238222
-0.0189809
-0.0144305
-0.0103487
-0.00589422
-0.00409459
-0.0828592
-0.0871818
-0.0900725
-0.0927011
-0.0947807
-0.0960905
-0.0966221
-0.0963998
-0.0954381
-0.093759
-0.0913995
-0.0884113
-0.0848524
-0.0807921
-0.0763045
-0.0714671
-0.0663583
-0.061055
-0.0556314
-0.0501551
-0.0446906
-0.0392886
-0.0340063
-0.0288688
-0.0239301
-0.0192174
-0.0146634
-0.0107271
-0.00604113
-0.00461626
-0.0687066
-0.07337
-0.0766473
-0.0798032
-0.0825108
-0.0845136
-0.0857933
-0.0863686
-0.0862427
-0.0854232
-0.0839328
-0.0818071
-0.0790928
-0.0758445
-0.0721253
-0.0680033
-0.0635497
-0.0588365
-0.0539347
-0.0489119
-0.0438325
-0.0387523
-0.033727
-0.0287983
-0.0240004
-0.0194167
-0.014884
-0.0110589
-0.00620888
-0.00500402
-0.0555814
-0.0604749
-0.0640904
-0.0676632
-0.0708721
-0.073452
-0.075373
-0.0766456
-0.077263
-0.0772206
-0.0765275
-0.0752055
-0.0732873
-0.070815
-0.0678391
-0.0644176
-0.060613
-0.0564907
-0.0521172
-0.0475581
-0.0428768
-0.0381321
-0.0333786
-0.0286699
-0.024028
-0.0195743
-0.0150848
-0.0113404
-0.00638735
-0.00525948
-0.0435777
-0.0486011
-0.0524962
-0.0563869
-0.0599828
-0.0630296
-0.0654875
-0.0673571
-0.068623
-0.0692702
-0.0692958
-0.0687088
-0.0675287
-0.0657851
-0.0635162
-0.0607687
-0.0575956
-0.0540548
-0.0502069
-0.0461138
-0.0418369
-0.0374357
-0.0329645
-0.028484
-0.0240102
-0.0196872
-0.015259
-0.0115694
-0.00656637
-0.00539043
-0.0327415
-0.0378127
-0.0419267
-0.0460497
-0.0499338
-0.0533478
-0.0562445
-0.0586148
-0.0604358
-0.061684
-0.0623461
-0.0624196
-0.0619122
-0.0608408
-0.0592325
-0.057122
-0.0545527
-0.0515738
-0.0482392
-0.0446059
-0.0407319
-0.036676
-0.0324919
-0.0282441
-0.0239466
-0.0197543
-0.0154018
-0.0117455
-0.00673654
-0.00541048
-0.0230849
-0.0281417
-0.0324178
-0.0367025
-0.0407925
-0.0444869
-0.047734
-0.0505157
-0.0528029
-0.0545654
-0.0557811
-0.0564379
-0.0565324
-0.0560706
-0.0550678
-0.0535488
-0.0515455
-0.0490993
-0.0462562
-0.0430674
-0.0395868
-0.0358711
-0.0319726
-0.0279575
-0.02384
-0.019777
-0.0155103
-0.0118706
-0.00689008
-0.0053382
-0.0145993
-0.0195993
-0.0239885
-0.0283788
-0.032609
-0.0365108
-0.0400309
-0.0431435
-0.0458147
-0.048009
-0.0496976
-0.0508598
-0.0514829
-0.0515629
-0.0511051
-0.0501242
-0.0486406
-0.0466886
-0.044306
-0.0415376
-0.0384324
-0.0350441
-0.0314232
-0.0276351
-0.0236964
-0.0197592
-0.0155839
-0.0119489
-0.00702148
-0.0051957
-0.00726817
-0.0121861
-0.0166489
-0.0211023
-0.0254221
-0.0294722