/*--------------------------------*- C++ -*----------------------------------*\
  =========                 |
  \\      /  F ield         | OpenFOAM: The Open Source CFD Toolbox
   \\    /   O peration     | Website:  https://openfoam.org
    \\  /    A nd           | Version:  7
     \\/     M anipulation  |
\*---------------------------------------------------------------------------*/
FoamFile
{
    version     2.0;
    format      ascii;
    class       surfaceScalarField;
    location    "20";
    object      phi;
}
// * * * * * * * * * * * * * * * * * * * * * * * * * * * * * * * * * * * * * //

dimensions      [0 3 -1 0 0 0 0];

internalField   nonuniform List<scalar> 
16735
(
-1.83326e-06
1.83326e-06
1.32695e-12
-5.45862e-06
3.62536e-06
3.85962e-12
-9.39641e-06
3.93778e-06
6.86166e-12
-1.21786e-05
2.78213e-06
1.00783e-11
-1.23772e-05
1.98618e-07
1.332e-11
-8.65574e-06
-3.72146e-06
1.67071e-11
1.60426e-07
-8.81619e-06
2.01336e-11
1.49747e-05
-1.48143e-05
2.37656e-11
3.63431e-05
-2.13685e-05
2.76898e-11
-2.79314e-05
3.1341e-11
6.42745e-05
-1.77733e-06
3.61059e-06
-5.23756e-06
7.08559e-06
-8.89172e-06
7.59194e-06
-1.12594e-05
5.14982e-06
-1.08961e-05
-1.64702e-07
-6.44308e-06
-8.17447e-06
3.30178e-06
-1.8561e-05
1.92752e-05
-3.07877e-05
4.20598e-05
-4.4153e-05
-5.75511e-05
7.16796e-05
-1.66586e-06
5.27645e-06
-4.79682e-06
1.02165e-05
-7.88557e-06
1.06807e-05
-9.4273e-06
6.69155e-06
-7.94458e-06
-1.64743e-06
-2.03459e-06
-1.40845e-05
9.56073e-06
-3.01564e-05
2.78415e-05
-4.90685e-05
5.34484e-05
-6.97599e-05
-9.05383e-05
8.64356e-05
-1.49958e-06
6.77603e-06
-4.13907e-06
1.2856e-05
-6.38414e-06
1.29258e-05
-6.69421e-06
7.00163e-06
-3.54348e-06
-4.79816e-06
4.53603e-06
-2.2164e-05
1.88865e-05
-4.45068e-05
4.06044e-05
-7.07865e-05
7.04202e-05
-9.95757e-05
-0.000128553
0.000108435
-1.27946e-06
8.05549e-06
-3.26798e-06
1.48446e-05
-4.39607e-06
1.40538e-05
-3.07708e-06
5.68264e-06
2.27738e-06
-1.01526e-05
1.32205e-05
-3.31071e-05
3.1206e-05
-6.24923e-05
5.74615e-05
-9.7042e-05
9.28426e-05
-0.000134957
-0.000173228
0.000137518
-1.00666e-06
9.06215e-06
-2.18785e-06
1.60258e-05
-1.93179e-06
1.37978e-05
1.40331e-06
2.34754e-06
9.48077e-06
-1.82301e-05
2.39574e-05
-4.75837e-05
4.64251e-05
-8.496e-05
7.82791e-05
-0.000128896
0.000120541
-0.000177219
-0.000226159
0.000173472
-6.82308e-07
9.74446e-06
-9.03214e-07
1.62467e-05
9.97376e-07
1.18972e-05
6.72369e-06
-3.37877e-06
1.80243e-05
-2.95307e-05
3.66752e-05
-6.62346e-05
6.44316e-05
-0.000112716
0.000102895
-0.000167359
0.0001533
-0.000227623
-0.000288896
0.000216037
-3.0757e-07
1.0052e-05
5.81387e-07
1.53577e-05
4.37994e-06
8.09864e-06
1.28601e-05
-1.18589e-05
2.78629e-05
-4.45335e-05
5.12956e-05
-8.96672e-05
8.50993e-05
-0.00014652
0.00013112
-0.00021338
0.000190864
-0.000287367
-0.000362932
0.0002649
1.17886e-07
9.93414e-06
2.26242e-06
1.32132e-05
8.20549e-06
2.15557e-06
1.97893e-05
-2.34427e-05
3.89512e-05
-6.36954e-05
6.77374e-05
-0.000118454
0.000108293
-0.000187075
0.000162747
-0.000267834
0.000232943
-0.000357563
-0.000449693
0.000319703
5.91726e-07
9.34241e-06
4.13691e-06
9.66799e-06
1.24648e-05
-6.17236e-06
2.74899e-05
-3.84678e-05
5.12464e-05
-8.74519e-05
8.59213e-05
-0.000153128
0.000133873
-0.000235027
0.00019755
-0.000331511
0.000279211
-0.000439224
-0.000550518
0.000380037
1.11549e-06
8.22692e-06
6.20281e-06
4.58068e-06
1.71503e-05
-1.71199e-05
3.59434e-05
-5.72609e-05
6.47104e-05
-0.000116219
0.000105774
-0.000194192
0.000161706
-0.000290959
0.000235299
-0.000405105
0.000329315
-0.00053324
-0.000666646
0.000445442
1.68906e-06
6.53786e-06
8.45855e-06
-2.18882e-06
2.22553e-05
-3.09166e-05
4.51339e-05
-8.01395e-05
7.93108e-05
-0.000150396
0.000127233
-0.000242114
0.00019167
-0.000355396
0.00027577
-0.000489205
0.00038288
-0.00064035
-0.000799177
0.000515411
2.31271e-06
4.22515e-06
1.09022e-05
-1.07783e-05
2.77726e-05
-4.7787e-05
5.50459e-05
-0.000107413
9.50201e-05
-0.00019037
0.000150247
-0.000297341
0.000223667
-0.000428816
0.000318759
-0.000584297
0.000439529
-0.00076112
-0.000949031
0.000589383
2.98635e-06
1.2388e-06
1.35302e-05
-2.13222e-05
3.36917e-05
-6.79485e-05
6.56607e-05
-0.000139382
0.000111811
-0.000236521
0.000174782
-0.000360311
0.00025763
-0.000511664
0.00036411
-0.000690776
0.000498903
-0.000895913
-0.00111688
0.000666752
3.70886e-06
-2.47006e-06
1.6335e-05
-3.39483e-05
3.99947e-05
-9.16082e-05
7.69495e-05
-0.000176337
0.000129651
-0.000289222
0.000200805
-0.000431465
0.000293532
-0.000604391
0.000411745
-0.00080899
0.000560722
-0.00104489
-0.00130305
0.000746886
4.47734e-06
-6.94739e-06
1.93031e-05
-4.8774e-05
4.66513e-05
-0.000118956
8.88641e-05
-0.000218549
0.000148482
-0.00034884
0.000228277
-0.000511261
0.000331378
-0.000707492
0.000461704
-0.000939315
0.000624868
-0.00120805
-0.00150734
0.000829166
5.28635e-06
-1.22337e-05
2.2412e-05
-6.58997e-05
5.36121e-05
-0.000150156
0.000101324
-0.000266262
0.000168204
-0.00041572
0.000257117
-0.000600173
0.000371182
-0.000821557
0.000514154
-0.00108229
0.000691495
-0.0013854
-0.00172898
0.000913129
6.12722e-06
-1.8361e-05
2.56285e-05
-8.54009e-05
6.08035e-05
-0.000185331
0.000114206
-0.000319664
0.000188646
-0.000490161
0.000287156
-0.000698683
0.000412917
-0.000947318
0.000569422
-0.00123879
0.000761134
-0.00157711
-0.00196678
0.000998939
6.98779e-06
-2.53488e-05
2.89068e-05
-0.00010732
6.81234e-05
-0.000224548
0.000127324
-0.000378865
0.00020953
-0.000572367
0.000318062
-0.000807215
0.000456434
-0.00108569
0.00062816
-0.00141052
0.000835462
-0.00178441
-0.00221934
0.00108802
7.85267e-06
-3.32014e-05
3.21903e-05
-0.000131658
7.54416e-05
-0.000267799
0.000140433
-0.000443857
0.000230434
-0.000662368
0.000349204
-0.000925984
0.000501065
-0.00123755
0.000690939
-0.00160039
0.000920957
-0.00201443
-0.00247946
0.00118108
8.70487e-06
-4.19063e-05
3.54157e-05
-0.000158368
8.26093e-05
-0.000314993
0.000153233
-0.00051448
0.000250787
-0.000759922
0.000379496
-0.00105469
0.000544702
-0.00140276
0.000753977
-0.00180967
0.00102325
-0.0022837
-0.00286473
0.00140851
9.52657e-06
-5.14329e-05
3.8518e-05
-0.00018736
8.94729e-05
-0.000365948
0.000165408
-0.000590416
0.000269957
-0.000864471
0.000407584
-0.00119232
0.000584046
-0.00157922
0.000807407
-0.00203303
0.00109109
-0.00256738
-0.0032197
0.00144607
1.03031e-05
-6.1736e-05
4.14425e-05
-0.000218499
9.59036e-05
-0.000420409
0.000176702
-0.000671214
0.000287458
-0.000975227
0.000432562
-0.00133742
0.000617429
-0.00176408
0.000848727
-0.00226433
0.00113424
-0.00285289
-0.0035585
0.00147303
1.10237e-05
-7.27597e-05
4.41483e-05
-0.000251624
0.000101808
-0.000478069
0.000186942
-0.000756347
0.00030302
-0.00109131
0.000454101
-0.00148851
0.000644826
-0.00195481
0.000880004
-0.00249951
0.00116313
-0.00313601
-0.00388463
0.00148926
1.1682e-05
-8.44417e-05
4.66105e-05
-0.000286552
0.000107133
-0.000538591
0.000196044
-0.000845258
0.000316557
-0.00121182
0.000472245
-0.00164419
0.000666817
-0.00214938
0.000903379
-0.00273607
0.00118266
-0.0034153
-0.00420024
0.00149828
1.22759e-05
-9.67176e-05
4.88189e-05
-0.000323095
0.000111858
-0.00060163
0.00020399
-0.000937391
0.000328101
-0.00133593
0.000487204
-0.0018033
0.000684079
-0.00234626
0.000920424
-0.00297241
0.00119525
-0.00369012
-0.00450693
0.00150193
1.28063e-05
-0.000109524
5.0774e-05
-0.000361063
0.000115986
-0.000666842
0.000210805
-0.00103221
0.000337744
-0.00146287
0.000499242
-0.00196479
0.00069722
-0.00254423
0.00093226
-0.00320745
0.0012023
-0.00396016
-0.0048055
0.00150087
1.32758e-05
-0.0001228
5.24822e-05
-0.000400269
0.000119533
-0.000733893
0.000216531
-0.00112921
0.000345597
-0.00159194
0.000508603
-0.0021278
0.000706712
-0.00274234
0.000939623
-0.00344036
0.00120458
-0.00422512
-0.00509624
0.00149532
1.36878e-05
-0.000136487
5.39521e-05
-0.000440534
0.00012252
-0.00080246
0.000221212
-0.0012279
0.000351754
-0.00172248
0.000515478
-0.00229153
0.000712873
-0.00293974
0.000942935
-0.00367043
0.00120242
-0.00448461
-0.00537903
0.00148521
1.40448e-05
-0.000150532
5.51912e-05
-0.00048168
0.000124961
-0.00087223
0.000224883
-0.00132782
0.000356284
-0.00185388
0.000519988
-0.00245523
0.000715884
-0.00313563
0.000942386
-0.00389693
0.00119588
-0.0047381
-0.00565348
0.00147032
1.43485e-05
-0.000164881
5.62033e-05
-0.000523535
0.000126865
-0.000942892
0.000227561
-0.00142852
0.000359222
-0.00198554
0.000522188
-0.00261819
0.00071581
-0.00332926
0.000938002
-0.00411912
0.00118483
-0.00498493
-0.00591896
0.00145031
1.45988e-05
-0.00017948
5.69878e-05
-0.000565924
0.000128231
-0.00101414
0.000229244
-0.00152953
0.000360567
-0.00211686
0.000522076
-0.0027797
0.000712632
-0.00351981
0.000929704
-0.00433619
0.00116909
-0.00522432
-0.00617468
0.00142481
1.47944e-05
-0.000194274
5.75392e-05
-0.000608669
0.000129047
-0.00108564
0.000229913
-0.0016304
0.00036029
-0.00224724
0.00051961
-0.00293902
0.000706273
-0.00370648
0.00091735
-0.00454727
0.0011484
-0.00545537
-0.00641971
0.00139343
1.49323e-05
-0.000209206
5.78477e-05
-0.000651584
0.000129293
-0.00115709
0.000229536
-0.00173064
0.000358341
-0.00237604
0.000514713
-0.0030954
0.000696621
-0.00388838
0.000900773
-0.00475142
0.00112251
-0.00567711
-0.00665304
0.00135585
1.50085e-05
-0.000224215
5.78999e-05
-0.000694476
0.000128942
-0.00122813
0.000228068
-0.00182976
0.000354657
-0.00250263
0.000507298
-0.00324804
0.000683555
-0.00406464
0.000879806
-0.00494767
0.00109121
-0.00588852
-0.00687364
0.00131181
1.5018e-05
-0.000239233
5.76801e-05
-0.000737138
0.000127963
-0.00129841
0.00022546
-0.00192726
0.000349167
-0.00262634
0.000497271
-0.00339614
0.000666957
-0.00423433
0.000854306
-0.00513502
0.00105433
-0.00608854
-0.00708043
0.00126113
1.49555e-05
-0.000254188
5.71712e-05
-0.000779353
0.000126323
-0.00136756
0.000221662
-0.0020226
0.000341804
-0.00274648
0.000484548
-0.00353889
0.000646728
-0.00439651
0.000824164
-0.00531246
0.00101176
-0.00627614
-0.00727239
0.00120371
1.48156e-05
-0.000269004
5.63563e-05
-0.000820894
0.000123992
-0.0014352
0.000216626
-0.00211523
0.000332505
-0.00286236
0.000469058
-0.00367544
0.000622796
-0.00455024
0.00078932
-0.00547898
0.000963472
-0.00645029
-0.0074485
0.00113958
1.45929e-05
-0.000283597
5.52194e-05
-0.000861521
0.000120939
-0.00150092
0.000210312
-0.00220461
0.000321223
-0.00297327
0.000450755
-0.00380497
0.000595126
-0.00469462
0.000749763
-0.00563362
0.000909494
-0.00661002
-0.00760785
0.00106884
1.42826e-05
-0.000297879
5.37466e-05
-0.000900985
0.000117141
-0.00156431
0.000202689
-0.00229016
0.000307928
-0.00307851
0.000429616
-0.00392666
0.000563722
-0.00482872
0.000705541
-0.00577544
0.000849941
-0.00675442
-0.00774959
0.000991685
1.38828e-05
-0.000311762
5.19308e-05
-0.000939033
0.000112588
-0.00162497
0.000193747
-0.00237131
0.000292617
-0.00317738
0.000405662
-0.0040397
0.00052864
-0.0049517
0.000656767
-0.00590356
0.000785002
-0.00688266
-0.00787299
0.000908399
1.33865e-05
-0.000325149
4.9757e-05
-0.000975403
0.000107258
-0.00168247
0.000183467
-0.00244752
0.000275285
-0.0032692
0.000378916
-0.00414334
0.00048995
-0.00506273
0.000603574
-0.00601719
0.000714896
-0.00699398
-0.0079774
0.000819307
1.27937e-05
-0.000337942
4.72256e-05
-0.00100984
0.000101157
-0.0017364
0.000171867
-0.00251823
0.000255977
-0.00335331
0.000349463
-0.00423682
0.000447793
-0.00516106
0.000546181
-0.00611558
0.000639934
-0.00708773
-0.0080623
0.00072483
1.21036e-05
-0.000350046
4.43378e-05
-0.00104207
9.42944e-05
-0.00178636
0.000158978
-0.00258292
0.000234753
-0.00342908
0.000317412
-0.00431948
0.000402344
-0.005246
0.000484842
-0.00619807
0.000560466
-0.00716336
-0.00812725
0.000625424
1.1317e-05
-0.000361363
4.10996e-05
-0.00107185
8.6691e-05
-0.00183195
0.000144843
-0.00264107
0.000211701
-0.00349594
0.000282905
-0.00439068
0.000353816
-0.00531691
0.000419854
-0.00626411
0.000476883
-0.00722039
-0.00817196
0.000521587
1.04357e-05
-0.000371799
3.75222e-05
-0.00109894
7.83768e-05
-0.00187281
0.000129528
-0.00269222
0.000186931
-0.00355335
0.000246118
-0.00444987
0.00030246
-0.00537325
0.000351554
-0.00631321
0.000389611
-0.00725844
-0.00819619
0.00041384
9.46345e-06
-0.000381262
3.36218e-05
-0.0011231
6.93929e-05
-0.00190858
0.000113111
-0.00273594
0.00016058
-0.00360081
0.000207256
-0.00449655
0.000248563
-0.00541456
0.000280311
-0.00634495
0.000299107
-0.00727724
-0.0081998
0.00030272
8.40508e-06
-0.000389667
2.94194e-05
-0.00114411
5.97904e-05
-0.00193895
9.56911e-05
-0.00277184
0.000132806
-0.00363793
0.000166554
-0.00453029
0.000192445
-0.00544045
0.000206531
-0.00635904
0.000205843
-0.00727655
-0.00818273
0.000188769
7.26702e-06
-0.000396934
2.49412e-05
-0.00116179
4.963e-05
-0.00196364
7.73795e-05
-0.00279959
0.00010379
-0.00366434
0.000124276
-0.00455078
0.000134457
-0.00545063
0.000130658
-0.00635524
0.000110311
-0.0072562
-0.00814484
7.24195e-05
6.05695e-06
-0.000402991
2.02172e-05
-0.00117595
3.8981e-05
-0.0019824
5.83025e-05
-0.00281891
7.37337e-05
-0.00367977
8.07098e-05
-0.00455776
7.49759e-05
-0.00544489
5.31707e-05
-0.00633344
1.3489e-05
-0.00721652
-0.00808571
-4.56345e-05
4.78368e-06
-0.000407775
1.52811e-05
-0.00118644
2.79196e-05
-0.00199504
3.85978e-05
-0.00282959
4.28529e-05
-0.00368403
3.61645e-05
-0.00455107
1.44083e-05
-0.00542314
-2.5539e-05
-0.00629349
-8.52573e-05
-0.0071568
-0.00800673
-0.000164236
3.45688e-06
-0.000411232
1.01696e-05
-0.00119316
1.65273e-05
-0.0020014
1.84114e-05
-0.00283147
1.13786e-05
-0.00367699
-9.02724e-06
-0.00453066
-4.68089e-05
-0.00538535
-0.00010486
-0.00623544
-0.000184282
-0.00707738
-0.00790724
-0.000283771
2.08692e-06
-0.000413319
4.92044e-06
-0.00119599
4.88824e-06
-0.00200136
-2.10574e-06
-0.00282448
-2.0451e-05
-0.00365865
-5.45209e-05
-0.00449659
-0.000108211
-0.00533166
-0.000184248
-0.0061594
-0.000283339
-0.00697829
-0.00778726
-0.000403328
6.85599e-07
-0.000414004
-4.29668e-07
-0.00119487
-6.91347e-06
-0.00199488
-2.28042e-05
-0.00280859
-5.23968e-05
-0.00362906
-9.99628e-05
-0.00444903
-0.000169317
-0.00526231
-0.000263109
-0.00606561
-0.000381814
-0.00685959
-0.00764671
-0.000522357
-7.46152e-07
-0.000413258
-5.83991e-06
-0.00118978
-1.87963e-05
-0.00198192
-4.35387e-05
-0.00278385
-8.42272e-05
-0.00358837
-0.000145004
-0.00438825
-0.000229627
-0.00517769
-0.000340796
-0.00595444
-0.000479014
-0.00672137
-0.00748542
-0.000640303
-2.18403e-06
-0.000411074
-1.12799e-05
-0.00118068
-3.06862e-05
-0.00196252
-6.41771e-05
-0.00275036
-0.000115729
-0.00353682
-0.000189316
-0.00431466
-0.00028864
-0.00507836
-0.0004166
-0.00582648
-0.000574138
-0.00656383
-0.00730294
-0.000756621
-3.62963e-06
-0.000407444
-1.67178e-05
-0.0011676
-4.25175e-05
-0.00193672
-8.46054e-05
-0.00270827
-0.000146719
-0.0034747
-0.000232604
-0.00422878
-0.00034588
-0.00496509
-0.000489762
-0.0056826
-0.000666238
-0.00638736
-0.00709844
-0.000870738
-5.07397e-06
-0.00040237
-2.21281e-05
-0.00115054
-5.42361e-05
-0.00190461
-0.000104732
-0.00265777
-0.000177056
-0.00340238
-0.000274645
-0.00413119
-0.00040093
-0.0048388
-0.000559482
-0.00552404
-0.00075408
-0.00619276
-0.00687084
-0.000981678
-6.51102e-06
-0.000395859
-2.74893e-05
-0.00112956
-6.57991e-05
-0.0018663
-0.000124493
-0.00259908
-0.000206655
-0.00332022
-0.000315309
-0.00402253
-0.000453506
-0.00470061
-0.000624919
-0.00535263
-0.000835532
-0.00598214
-0.00661803
-0.00108835
-7.93581e-06
-0.000387924
-3.27837e-05
-0.00110472
-7.71736e-05
-0.00182191
-0.000143846
-0.00253241
-0.000235487
-0.00322858
-0.000354615
-0.00390341
-0.00050364
-0.00455158
-0.000685545
-0.00517073
-0.000907307
-0.00576038
-0.00633276
-0.00119257
-9.34123e-06
-0.000378582
-3.79903e-05
-0.00107607
-8.83248e-05
-0.00177158
-0.000162757
-0.00245797
-0.00026356
-0.00312777
-0.000392724
-0.00377424
-0.000551925
-0.00439238
-0.000742624
-0.00498003
-0.000964666
-0.00553834
-0.00607592
-0.00122151
-1.0727e-05
-0.000367855
-4.3101e-05
-0.00104369
-9.92348e-05
-0.00171544
-0.000181208
-0.002376
-0.000290895
-0.00301809
-0.000429829
-0.00363531
-0.000599146
-0.00422306
-0.000799656
-0.00477952
-0.00103167
-0.00530633
-0.00580741
-0.00130018
-1.20847e-05
-0.000355771
-4.80911e-05
-0.00100769
-0.000109859
-0.00165367
-0.000199136
-0.00228672
-0.000317421
-0.0028998
-0.000465854
-0.00348688
-0.000645196
-0.00404372
-0.000855991
-0.00456872
-0.00109887
-0.00506345
-0.00552985
-0.00137644
-1.34077e-05
-0.000342363
-5.29378e-05
-0.000968156
-0.000120151
-0.00158646
-0.000216466
-0.00219041
-0.000343019
-0.00277325
-0.000500586
-0.00332931
-0.000689595
-0.00385471
-0.000910291
-0.00434803
-0.00116303
-0.00481071
-0.00524405
-0.00144882
-1.46886e-05
-0.000327674
-5.76163e-05
-0.000925228
-0.000130062
-0.00151401
-0.000233114
-0.00208736
-0.000367554
-0.00263881
-0.000533802
-0.00316306
-0.000731941
-0.00365657
-0.000961857
-0.00411811
-0.00122343
-0.00454914
-0.00495092
-0.00151655
-1.59201e-05
-0.000311754
-6.21018e-05
-0.000879047
-0.00013954
-0.00143658
-0.000248996
-0.0019779
-0.000390901
-0.0024969
-0.000565315
-0.00298865
-0.000771967
-0.00344992
-0.00101036
-0.00387972
-0.00127987
-0.00427963
-0.00465119
-0.0015796
-1.70947e-05
-0.00029466
-6.63704e-05
-0.000829771
-0.000148539
-0.00135441
-0.000264038
-0.0018624
-0.00041295
-0.00234799
-0.000594982
-0.00280662
-0.000809504
-0.0032354
-0.00105564
-0.00363358
-0.00133232
-0.00400295
-0.00434542
-0.0016381
-1.82061e-05
-0.000276453
-7.04006e-05
-0.000777577
-0.000157017
-0.00126779
-0.000278175
-0.00174124
-0.000433616
-0.00219255
-0.0006227
-0.00261753
-0.000844451
-0.00301365
-0.00109763
-0.0033804
-0.00138082
-0.00371976
-0.00403402
-0.00169222
-1.92485e-05
-0.000257205
-7.41736e-05
-0.000722651
-0.000164938
-0.00117703
-0.000291353
-0.00161483
-0.000452831
-0.00203107
-0.0006484
-0.00242196
-0.000876755
-0.00278529
-0.00113634
-0.00312081
-0.00142545
-0.00343065
-0.0037174
-0.00174208
-2.02168e-05
-0.000236988
-7.76734e-05
-0.000665195
-0.000172273
-0.00108243
-0.000303531
-0.00148357
-0.000470547
-0.00186405
-0.000672035
-0.00222048
-0.000906391
-0.00255093
-0.00117179
-0.00285542
-0.00146629
-0.00313614
-0.0033959
-0.00178779
-2.1107e-05
-0.000215881
-8.08867e-05
-0.000605415
-0.000178996
-0.000984318
-0.000314673
-0.00134789
-0.000486725
-0.001692
-0.000693575
-0.00201363
-0.00093335
-0.00231116
-0.00120399
-0.00258477
-0.0015034
-0.00283674
-0.0030699
-0.0018294
-2.19157e-05
-0.000193966
-8.38027e-05
-0.000543528
-0.00018509
-0.000883031
-0.000324756
-0.00120823
-0.00050134
-0.00151542
-0.000713002
-0.00180196
-0.00095763
-0.00206653
-0.00123297
-0.00230943
-0.00153681
-0.0025329
-0.00273975
-0.00186695
-2.26402e-05
-0.000171325
-8.64127e-05
-0.000479756
-0.000190537
-0.000778907
-0.000333758
-0.001065
-0.00051437
-0.00133481
-0.0007303
-0.00158603
-0.000979229
-0.0018176
-0.00125874
-0.00202992
-0.00156654
-0.00222511
-0.00240584
-0.00190045
-2.32784e-05
-0.000148047
-8.87095e-05
-0.000414324
-0.000195326
-0.00067229
-0.000341664
-0.000918667
-0.000525801
-0.00115067
-0.00074546
-0.00136638
-0.000998145
-0.00156492
-0.00128132
-0.00174675
-0.0015926
-0.00191382
-0.00206858
-0.00192986
-2.38283e-05
-0.000124219
-9.06876e-05
-0.000347465
-0.000199448
-0.00056353
-0.000348461
-0.000769653
-0.00053562
-0.000963512
-0.000758473
-0.00114352
-0.00101437
-0.00130902
-0.00130068
-0.00146044
-0.00161499
-0.00159952
-0.0017284
-0.00195517
-2.42886e-05
-9.99301e-05
-9.23423e-05
-0.000279411
-0.000202893
-0.000452979
-0.00035414
-0.000618407
-0.000543818
-0.000773834
-0.00076933
-0.00091801
-0.00102791
-0.00105043
-0.00131684
-0.00117151
-0.00163368
-0.00128268
-0.00138574
-0.00197633
-2.46581e-05
-7.5272e-05
-9.36701e-05
-0.000210399
-0.000205656
-0.000340993
-0.000358691
-0.000465372
-0.000550385
-0.00058214
-0.000778026
-0.00069037
-0.00103875
-0.000789704
-0.00132979
-0.000880477
-0.00164866
-0.00096381
-0.00104108
-0.00199332
-2.4936e-05
-5.0336e-05
-9.46683e-05
-0.000140667
-0.000207733
-0.000227928
-0.00036211
-0.000310994
-0.000555317
-0.000388934
-0.000784553
-0.000461133
-0.00104689
-0.000527364
-0.00133951
-0.000587864
-0.00165992
-0.000643398
-0.000694905
-0.00200609
-2.51216e-05
-2.52144e-05
-9.53348e-05
-7.04539e-05
-0.000209119
-0.000114144
-0.000364392
-0.000155721
-0.000558607
-0.000194719
-0.000788907
-0.000230833
-0.00105232
-0.000263951
-0.00134599
-0.000294196
-0.00166743
-0.000321957
-0.000347708
-0.00201463
-2.52144e-05
1.34415e-12
-9.56683e-05
3.44703e-12
-0.000209812
5.01404e-12
-0.000365534
6.13437e-12
-0.000560253
6.88801e-12
-0.000791085
7.40919e-12
-0.00105504
7.78734e-12
-0.00134923
8.00224e-12
-0.00167119
8.07659e-12
7.91802e-12
-0.0020189
-2.52144e-05
2.52144e-05
-9.56683e-05
7.04539e-05
-0.000209812
0.000114144
-0.000365534
0.000155721
-0.000560253
0.000194719
-0.000791085
0.000230833
-0.00105504
0.000263951
-0.00134923
0.000294196
-0.00167119
0.000321957
0.000347708
-0.0020189
-2.51216e-05
5.0336e-05
-9.53348e-05
0.000140667
-0.000209119
0.000227928
-0.000364392
0.000310994
-0.000558607
0.000388934
-0.000788907
0.000461133
-0.00105232
0.000527364
-0.00134599
0.000587864
-0.00166743
0.000643398
0.000694905
-0.00201463
-2.4936e-05
7.5272e-05
-9.46683e-05
0.000210399
-0.000207733
0.000340993
-0.00036211
0.000465372
-0.000555317
0.00058214
-0.000784553
0.00069037
-0.00104689
0.000789704
-0.00133951
0.000880477
-0.00165992
0.00096381
0.00104108
-0.00200609
-2.46581e-05
9.99301e-05
-9.36701e-05
0.000279412
-0.000205656
0.000452979
-0.000358691
0.000618407
-0.000550385
0.000773834
-0.000778026
0.00091801
-0.00103875
0.00105043
-0.00132979
0.00117151
-0.00164866
0.00128268
0.00138574
-0.00199332
-2.42886e-05
0.000124219
-9.23423e-05
0.000347465
-0.000202893
0.00056353
-0.00035414
0.000769653
-0.000543818
0.000963512
-0.00076933
0.00114352
-0.00102791
0.00130902
-0.00131684
0.00146044
-0.00163368
0.00159952
0.0017284
-0.00197633
-2.38283e-05
0.000148047
-9.06876e-05
0.000414325
-0.000199448
0.00067229
-0.000348461
0.000918667
-0.00053562
0.00115067
-0.000758473
0.00136638
-0.00101437
0.00156492
-0.00130068
0.00174675
-0.00161499
0.00191382
0.00206858
-0.00195517
-2.32784e-05
0.000171325
-8.87095e-05
0.000479756
-0.000195326
0.000778907
-0.000341664
0.001065
-0.000525801
0.00133481
-0.00074546
0.00158603
-0.000998145
0.0018176
-0.00128132
0.00202992
-0.0015926
0.00222511
0.00240584
-0.00192986
-2.26402e-05
0.000193966
-8.64127e-05
0.000543528
-0.000190537
0.000883031
-0.000333758
0.00120823
-0.00051437
0.00151542
-0.0007303
0.00180196
-0.000979229
0.00206653
-0.00125874
0.00230943
-0.00156654
0.0025329
0.00273975
-0.00190045
-2.19157e-05
0.000215881
-8.38027e-05
0.000605415
-0.00018509
0.000984318
-0.000324756
0.00134789
-0.00050134
0.001692
-0.000713002
0.00201363
-0.00095763
0.00231116
-0.00123297
0.00258477
-0.00153681
0.00283674
0.0030699
-0.00186695
-2.1107e-05
0.000236988
-8.08867e-05
0.000665195
-0.000178996
0.00108243
-0.000314673
0.00148357
-0.000486725
0.00186405
-0.000693575
0.00222048
-0.00093335
0.00255093
-0.00120399
0.00285542
-0.0015034
0.00313614
0.0033959
-0.0018294
-2.02168e-05
0.000257205
-7.76734e-05
0.000722651
-0.000172273
0.00117703
-0.000303531
0.00161483
-0.000470547
0.00203107
-0.000672035
0.00242196
-0.000906391
0.00278529
-0.00117179
0.00312081
-0.00146629
0.00343065
0.0037174
-0.00178779
-1.92485e-05
0.000276453
-7.41736e-05
0.000777577
-0.000164938
0.00126779
-0.000291353
0.00174124
-0.000452831
0.00219255
-0.0006484
0.00261753
-0.000876755
0.00301365
-0.00113634
0.0033804
-0.00142545
0.00371976
0.00403402
-0.00174208
-1.82061e-05
0.00029466
-7.04006e-05
0.000829771
-0.000157017
0.00135441
-0.000278175
0.0018624
-0.000433616
0.00234799
-0.0006227
0.00280662
-0.000844451
0.0032354
-0.00109763
0.00363358
-0.00138082
0.00400295
0.00434542
-0.00169222
-1.70947e-05
0.000311754
-6.63704e-05
0.000879047
-0.000148539
0.00143658
-0.000264038
0.0019779
-0.00041295
0.0024969
-0.000594982
0.00298865
-0.000809504
0.00344992
-0.00105564
0.00387972
-0.00133232
0.00427963
0.00465119
-0.0016381
-1.59201e-05
0.000327674
-6.21018e-05
0.000925228
-0.00013954
0.00151401
-0.000248996
0.00208736
-0.000390901
0.00263881
-0.000565315
0.00316306
-0.000771967
0.00365657
-0.00101036
0.00411811
-0.00127987
0.00454914
0.00495092
-0.0015796
-1.46886e-05
0.000342363
-5.76163e-05
0.000968156
-0.000130062
0.00158646
-0.000233114
0.00219041
-0.000367554
0.00277325
-0.000533802
0.00332931
-0.000731941
0.00385471
-0.000961857
0.00434803
-0.00122343
0.00481071
0.00524405
-0.00151655
-1.34077e-05
0.000355771
-5.29378e-05
0.00100769
-0.000120151
0.00165367
-0.000216466
0.00228672
-0.000343019
0.0028998
-0.000500586
0.00348688
-0.000689595
0.00404372
-0.000910291
0.00456872
-0.00116303
0.00506345
0.00552985
-0.00144882
-1.20847e-05
0.000367855
-4.80911e-05
0.00104369
-0.000109859
0.00171544
-0.000199136
0.002376
-0.000317421
0.00301809
-0.000465854
0.00363531
-0.000645196
0.00422306
-0.000855991
0.00477952
-0.00109887
0.00530633
0.00580741
-0.00137644
-1.0727e-05
0.000378582
-4.3101e-05
0.00107607
-9.92348e-05
0.00177158
-0.000181208
0.00245797
-0.000290895
0.00312777
-0.000429829
0.00377424
-0.000599146
0.00439238
-0.000799656
0.00498003
-0.00103167
0.00553834
0.00607592
-0.00130018
-9.34123e-06
0.000387924
-3.79903e-05
0.00110472
-8.83248e-05
0.00182191
-0.000162757
0.00253241
-0.00026356
0.00322858
-0.000392724
0.00390341
-0.000551925
0.00455158
-0.000742624
0.00517073
-0.000964666
0.00576038
0.00633276
-0.00122151
-7.93581e-06
0.000395859
-3.27837e-05
0.00112956
-7.71736e-05
0.0018663
-0.000143846
0.00259908
-0.000235487
0.00332022
-0.000354615
0.00402253
-0.00050364
0.00470061
-0.000685545
0.00535263
-0.000907307
0.00598214
0.00661803
-0.00119257
-6.51102e-06
0.00040237
-2.74893e-05
0.00115054
-6.57991e-05
0.00190461
-0.000124493
0.00265777
-0.000206655
0.00340238
-0.000315309
0.00413119
-0.000453506
0.0048388
-0.000624919
0.00552404
-0.000835532
0.00619276
0.00687084
-0.00108835
-5.07397e-06
0.000407444
-2.21281e-05
0.0011676
-5.42361e-05
0.00193672
-0.000104732
0.00270827
-0.000177056
0.0034747
-0.000274645
0.00422878
-0.00040093
0.00496509
-0.000559482
0.0056826
-0.00075408
0.00638736
0.00709844
-0.000981678
-3.62963e-06
0.000411074
-1.67178e-05
0.00118068
-4.25175e-05
0.00196252
-8.46054e-05
0.00275036
-0.000146719
0.00353682
-0.000232604
0.00431466
-0.00034588
0.00507836
-0.000489762
0.00582648
-0.000666238
0.00656383
0.00730294
-0.000870738
-2.18403e-06
0.000413258
-1.12799e-05
0.00118978
-3.06862e-05
0.00198192
-6.41771e-05
0.00278385
-0.000115729
0.00358837
-0.000189316
0.00438825
-0.00028864
0.00517769
-0.0004166
0.00595444
-0.000574138
0.00672137
0.00748542
-0.000756621
-7.46152e-07
0.000414004
-5.83991e-06
0.00119487
-1.87963e-05
0.00199488
-4.35387e-05
0.00280859
-8.42271e-05
0.00362906
-0.000145004
0.00444903
-0.000229627
0.00526231
-0.000340796
0.00606561
-0.000479014
0.00685959
0.00764671
-0.000640303
6.856e-07
0.000413319
-4.29667e-07
0.00119599
-6.91347e-06
0.00200136
-2.28042e-05
0.00282448
-5.23968e-05
0.00365865
-9.99628e-05
0.00449659
-0.000169317
0.00533166
-0.000263109
0.0061594
-0.000381814
0.00697829
0.00778726
-0.000522357
2.08692e-06
0.000411232
4.92044e-06
0.00119316
4.88824e-06
0.0020014
-2.10574e-06
0.00283147
-2.0451e-05
0.00367699
-5.45209e-05
0.00453066
-0.000108211
0.00538535
-0.000184248
0.00623544
-0.000283339
0.00707738
0.00790724
-0.000403328
3.45688e-06
0.000407775
1.01696e-05
0.00118644
1.65273e-05
0.00199504
1.84114e-05
0.00282959
1.13787e-05
0.00368403
-9.02724e-06
0.00455107
-4.68089e-05
0.00542314
-0.00010486
0.00629349
-0.000184282
0.0071568
0.00800673
-0.000283771
4.78368e-06
0.000402991
1.52811e-05
0.00117595
2.79196e-05
0.0019824
3.85978e-05
0.00281891
4.28529e-05
0.00367977
3.61645e-05
0.00455776
1.44083e-05
0.00544489
-2.5539e-05
0.00633344
-8.52573e-05
0.00721652
0.00808571
-0.000164236
6.05695e-06
0.000396934
2.02172e-05
0.00116179
3.8981e-05
0.00196364
5.83025e-05
0.00279959
7.37337e-05
0.00366434
8.07098e-05
0.00455078
7.49759e-05
0.00545063
5.31707e-05
0.00635524
1.3489e-05
0.0072562
0.00814484
-4.56345e-05
7.26702e-06
0.000389667
2.49412e-05
0.00114411
4.963e-05
0.00193895
7.73795e-05
0.00277184
0.00010379
0.00363793
0.000124277
0.00453029
0.000134457
0.00544045
0.000130658
0.00635904
0.000110311
0.00727655
0.00818273
7.24196e-05
8.40508e-06
0.000381262
2.94194e-05
0.0011231
5.97904e-05
0.00190858
9.56911e-05
0.00273594
0.000132806
0.00360081
0.000166554
0.00449655
0.000192445
0.00541456
0.000206531
0.00634495
0.000205843
0.00727724
0.0081998
0.000188769
9.46345e-06
0.000371799
3.36218e-05
0.00109894
6.93929e-05
0.00187281
0.000113111
0.00269222
0.00016058
0.00355335
0.000207256
0.00444987
0.000248563
0.00537325
0.000280311
0.00631321
0.000299107
0.00725844
0.00819619
0.00030272
1.04357e-05
0.000361363
3.75222e-05
0.00107185
7.83768e-05
0.00183195
0.000129528
0.00264107
0.000186931
0.00349594
0.000246118
0.00439068
0.00030246
0.00531691
0.000351554
0.00626411
0.000389611
0.00722039
0.00817196
0.00041384
1.1317e-05
0.000350046
4.10996e-05
0.00104207
8.6691e-05
0.00178636
0.000144843
0.00258292
0.000211701
0.00342908
0.000282905
0.00431948
0.000353816
0.005246
0.000419854
0.00619807
0.000476883
0.00716336
0.00812725
0.000521587
1.21036e-05
0.000337942
4.43378e-05
0.00100983
9.42944e-05
0.0017364
0.000158978
0.00251823
0.000234753
0.00335331
0.000317412
0.00423682
0.000402344
0.00516106
0.000484842
0.00611558
0.000560466
0.00708773
0.0080623
0.000625424
1.27937e-05
0.000325149
4.72256e-05
0.000975403
0.000101157
0.00168247
0.000171867
0.00244752
0.000255977
0.0032692
0.000349463
0.00414334
0.000447793
0.00506273
0.000546181
0.00601719
0.000639934
0.00699398
0.0079774
0.00072483
1.33865e-05
0.000311762
4.9757e-05
0.000939033
0.000107258
0.00162497
0.000183467
0.00237131
0.000275285
0.00317738
0.000378916
0.0040397
0.00048995
0.0049517
0.000603574
0.00590356
0.000714896
0.00688266
0.00787299
0.000819307
1.38828e-05
0.000297879
5.19308e-05
0.000900985
0.000112588
0.00156431
0.000193747
0.00229016
0.000292617
0.00307851
0.000405662
0.00392666
0.00052864
0.00482872
0.000656767
0.00577544
0.000785002
0.00675442
0.00774959
0.000908399
1.42826e-05
0.000283597
5.37466e-05
0.000861521
0.000117141
0.00150092
0.000202689
0.00220461
0.000307928
0.00297327
0.000429616
0.00380497
0.000563722
0.00469462
0.000705541
0.00563362
0.000849941
0.00661002
0.00760785
0.000991685
1.45929e-05