/*--------------------------------*- C++ -*----------------------------------*\
  =========                 |
  \\      /  F ield         | OpenFOAM: The Open Source CFD Toolbox
   \\    /   O peration     | Website:  https://openfoam.org
    \\  /    A nd           | Version:  7
     \\/     M anipulation  |
\*---------------------------------------------------------------------------*/
FoamFile
{
    version     2.0;
    format      ascii;
    class       volVectorField;
    location    "20";
    object      U;
}
// * * * * * * * * * * * * * * * * * * * * * * * * * * * * * * * * * * * * * //

dimensions      [0 1 -1 0 0 0 0];

internalField   nonuniform List<vector> 
8500
(
(-0.000380939 0.000260194 -8.93892e-22)
(-0.00160147 0.000460339 8.49172e-21)
(-0.00331317 0.000432298 1.76855e-20)
(-0.00457061 0.000240842 -4.61545e-22)
(-0.00490456 -6.24178e-05 -6.67705e-21)
(-0.00400459 -0.000430843 -6.76246e-21)
(-0.00169706 -0.000821514 1.21616e-21)
(0.00203409 -0.00119372 2.0111e-20)
(0.00707423 -0.00151321 -1.1506e-20)
(0.013257 -0.00174226 4.20867e-21)
(-0.00041373 0.000771733 -1.40789e-20)
(-0.00162232 0.00135974 8.35813e-21)
(-0.00323671 0.00126816 -2.99971e-20)
(-0.00433428 0.000689884 -2.89667e-20)
(-0.004456 -0.000220996 6.47307e-21)
(-0.0032999 -0.00132524 5.36295e-21)
(-0.000699284 -0.00249455 -7.89536e-21)
(0.00335362 -0.00360723 6.95824e-21)
(0.00873896 -0.00455983 1.44378e-20)
(0.0153204 -0.00523625 9.11283e-21)
(-0.000476786 0.0012569 -1.40947e-20)
(-0.00165767 0.00219574 -1.52311e-20)
(-0.00307479 0.00201844 1.53556e-20)
(-0.00385089 0.00104181 4.93266e-20)
(-0.00354728 -0.000479851 2.54476e-20)
(-0.00187876 -0.00231672 1.17947e-20)
(0.00130756 -0.0042566 -8.28734e-21)
(0.00600316 -0.00609785 -3.32854e-20)
(0.0120779 -0.00766619 1.55896e-20)
(0.0194555 -0.00875787 -1.08999e-19)
(-0.000565088 0.0016987 -3.86679e-23)
(-0.00169489 0.00292751 4.45122e-21)
(-0.00280952 0.00262824 -3.05415e-20)
(-0.00309914 0.00123462 -1.7617e-20)
(-0.00215532 -0.00090261 -2.39826e-20)
(0.000282251 -0.00346645 -2.32224e-20)
(0.004346 -0.00616341 6.69291e-20)
(0.0100036 -0.00871335 -4.73898e-20)
(0.0171098 -0.0108691 -6.45165e-20)
(0.025679 -0.012323 5.4269e-20)
(-0.000671192 0.00208096 2.19323e-20)
(-0.00171522 0.00351634 -1.48332e-20)
(-0.00241425 0.00304578 -4.00316e-21)
(-0.00204723 0.00121032 2.89616e-21)
(-0.000245703 -0.00154809 2.3492e-20)
(0.00321792 -0.0048302 4.56114e-20)
(0.00844947 -0.00826507 -1.79706e-20)
(0.0153859 -0.0114962 5.66214e-20)
(0.0238623 -0.0142008 5.47559e-20)
(0.0340152 -0.0159439 -3.54015e-20)
(-0.000785328 0.00238867 6.41852e-20)
(-0.00169395 0.00392639 -4.1595e-21)
(-0.00185384 0.0032236 3.86729e-20)
(-0.00065324 0.000916544 -3.45286e-20)
(0.00222697 -0.00246845 -7.6895e-20)
(0.00697415 -0.00645627 5.12912e-20)
(0.013662 -0.0106037 1.17768e-19)
(0.0221905 -0.0144813 2.41255e-20)
(0.0323716 -0.0176872 6.65477e-21)
(0.0444959 -0.0196275 3.80726e-20)
(-0.000895509 0.00260818 -1.15528e-19)
(-0.00160068 0.00412535 2.30884e-20)
(-0.00108498 0.00311968 -1.55017e-20)
(0.00113456 0.000307928 -5.70513e-20)
(0.00531869 -0.0037074 2.55127e-21)
(0.0116075 -0.00838334 -1.90469e-19)
(0.0200374 -0.0132113 -1.81758e-19)
(0.0304667 -0.0176935 -1.41405e-19)
(0.0426811 -0.0213455 8.1913e-20)
(0.0571595 -0.0233746 -7.72552e-21)
(-0.000987661 0.00272744 7.59951e-20)
(-0.00139963 0.00408512 -7.11162e-20)
(-5.65695e-05 0.00269832 4.28194e-20)
(0.0033772 -0.000652558 9.72758e-20)
(0.00909552 -0.00529853 -4.75093e-20)
(0.0171845 -0.0106385 3.85517e-20)
(0.0276392 -0.0161072 1.73196e-20)
(0.0402718 -0.0211453 1.32582e-19)
(0.0548409 -0.0251827 -1.2447e-20)
(0.07205 -0.0271778 -3.60358e-20)
(-0.00104569 0.00273601 2.08074e-20)
(-0.00104995 0.00378232 8.20492e-20)
(0.00128973 0.00193105 -1.36824e-19)
(0.00614442 -0.00199245 6.96916e-20)
(0.013633 -0.00726381 7.87497e-20)
(0.0237813 -0.0132352 1.37996e-19)
(0.036539 -0.0192957 8.94976e-20)
(0.0516701 -0.024834 1.11634e-19)
(0.0689064 -0.0291923 6.03763e-21)
(0.0892156 -0.0310207 1.7265e-20)
(-0.0010516 0.00262545 -8.28824e-20)
(-0.000506049 0.00319858 -7.07857e-20)
(0.00301887 0.000797314 1.29693e-19)
(0.00951384 -0.00372881 -1.59896e-20)
(0.019015 -0.00961238 -1.07915e-19)
(0.0314822 -0.0161717 3.45155e-20)
(0.0468164 -0.0227638 8.15178e-20)
(0.0647317 -0.0287386 -1.65302e-19)
(0.0849363 -0.0333522 1.21e-19)
(0.108707 -0.0348762 8.39655e-20)
(-0.000985782 0.00238926 3.35353e-20)
(0.000281834 0.00232089 6.24845e-20)
(0.00520174 -0.000714981 2.14536e-19)
(0.01357 -0.00586758 -1.76777e-19)
(0.0253331 -0.0123396 5.34251e-20)
(0.0403793 -0.0194299 7.71284e-20)
(0.0585576 -0.0264792 -6.286e-20)
(0.0795317 -0.0328171 1.65156e-19)
(0.102992 -0.0376208 -1.43237e-19)
(0.130575 -0.0387046 9.44425e-20)
(-0.000826982 0.00202285 8.16195e-21)
(0.00136708 0.00114214 -2.60957e-19)
(0.00791403 -0.00260906 -1.6881e-19)
(0.018403 -0.00840318 1.42449e-19)
(0.0326848 -0.0154268 1.051e-19)
(0.0505709 -0.0229742 -2.3271e-20)
(0.0718545 -0.0303884 -1.04883e-19)
(0.0961487 -0.037003 -3.16932e-20)
(0.123134 -0.0419327 1.83524e-19)
(0.154867 -0.0424514 -2.49258e-20)
(-0.000552512 0.00152378 -1.12357e-19)
(0.00280602 -0.000338783 2.77581e-19)
(0.011235 -0.00487905 5.08312e-20)
(0.0241069 -0.0113185 -2.57972e-19)
(0.0411719 -0.0188413 4.5821e-20)
(0.0621599 -0.0267522 -3.02391e-19)
(0.0868037 -0.0344162 2.45964e-19)
(0.114665 -0.0412018 -6.45221e-20)
(0.145423 -0.0461923 -4.08702e-19)
(0.181625 -0.0460424 -1.19313e-19)
(-0.000138536 0.000891938 4.07242e-20)
(0.00465691 -0.00211662 -1.7832e-19)
(0.0152457 -0.00750993 5.49446e-21)
(0.0307771 -0.0145855 5.51342e-20)
(0.0508979 -0.0225379 -2.87301e-19)
(0.0752518 -0.0306959 3.13638e-20)
(0.103506 -0.0384661 -3.62685e-19)
(0.135165 -0.045289 -5.04237e-20)
(0.16992 -0.0502659 3.2941e-19)
(0.210881 -0.0493757 1.32233e-19)
(0.000439554 0.000129748 3.50952e-20)
(0.00697865 -0.00417944 8.56783e-20)
(0.0200267 -0.0104775 7.89747e-21)
(0.0385078 -0.0181657 6.10652e-20)
(0.0619645 -0.0264605 1.99162e-19)
(0.0899517 -0.0347253 2.90056e-19)
(0.122063 -0.0424241 -1.25998e-20)
(0.157742 -0.0491092 2.46519e-20)
(0.19669 -0.0539718 -5.853e-20)
(0.242655 -0.0523114 1.20132e-19)
(0.00120658 -0.000757511 -7.04701e-20)
(0.00982911 -0.00650816 9.58791e-20)
(0.0256557 -0.0137486 2.3557e-20)
(0.0473882 -0.0220118 1.51035e-19)
(0.0744678 -0.0305458 -1.48586e-19)
(0.10636 -0.0387537 -2.94779e-19)
(0.142579 -0.0461661 1.35597e-19)
(0.182494 -0.0524819 -6.8401e-20)
(0.225812 -0.0570759 -1.22587e-19)
(0.276965 -0.0546597 2.66771e-19)
(0.00218679 -0.00176128 1.42514e-19)
(0.0132631 -0.00907615 -1.28067e-19)
(0.0322035 -0.0172811 -3.30418e-21)
(0.0574975 -0.0260685 -2.06206e-20)
(0.0884918 -0.034726 1.60734e-19)
(0.124567 -0.0426956 2.46758e-19)
(0.165152 -0.0495703 -7.56526e-20)
(0.20953 -0.0552134 4.97988e-20)
(0.257392 -0.0592781 7.65318e-20)
(0.313841 -0.0561225 -3.83825e-19)
(0.00340291 -0.00286929 1.05449e-20)
(0.0173297 -0.0118486 3.44352e-19)
(0.039731 -0.0210235 -2.65418e-20)
(0.0688999 -0.030274 -4.74484e-20)
(0.104101 -0.0389334 -1.5691e-19)
(0.144642 -0.0464767 1.79774e-19)
(0.189868 -0.052538 -1.73476e-19)
(0.238966 -0.0571174 1.34651e-19)
(0.291545 -0.0601509 -3.59682e-20)
(0.353211 -0.0560532 2.48965e-19)
(0.00487497 -0.00406509 -1.93749e-19)
(0.0220703 -0.014782 -2.51381e-19)
(0.0482847 -0.0249152 -1.44371e-19)
(0.0816385 -0.0345598 3.48933e-19)
(0.121332 -0.043103 -1.46305e-19)
(0.166622 -0.0500453 -1.12338e-19)
(0.216794 -0.055028 -9.53093e-20)
(0.270966 -0.0580731 1.92603e-19)
(0.328512 -0.0591238 -4.52334e-19)
(0.394762 -0.0532068 2.93712e-19)
(0.00661912 -0.00532777 -1.99169e-20)
(0.0275151 -0.0178237 1.98665e-20)
(0.057893 -0.0288848 4.78329e-21)
(0.0957289 -0.0388493 -2.07477e-19)
(0.140181 -0.0471717 9.29264e-20)
(0.190487 -0.0533815 2.07774e-20)
(0.245944 -0.0571036 1.92176e-19)
(0.305789 -0.058192 -2.4275e-19)
(0.369288 -0.0560562 2.53383e-19)
(0.4397 -0.0471992 -1.3063e-19)
(0.00864661 -0.00663193 -8.36801e-20)
(0.0336822 -0.0209114 -8.52788e-20)
(0.068564 -0.0328491 1.31278e-19)
(0.111155 -0.0430537 1.09986e-19)
(0.160589 -0.051069 -6.58118e-20)
(0.216122 -0.0564817 -1.15988e-19)
(0.277137 -0.0589327 -3.1232e-19)
(0.343335 -0.0580396 2.76762e-19)
(0.415204 -0.0525836 -1.8986e-19)
(0.497225 -0.0423783 3.33471e-20)
(0.0109631 -0.0079479 -1.06924e-19)
(0.0405759 -0.0239736 2.35028e-19)
(0.0802845 -0.0367114 -2.19953e-19)
(0.127868 -0.0470657 -6.46032e-20)
(0.182449 -0.0546977 1.58495e-19)
(0.243299 -0.0592999 -2.6299e-19)
(0.309886 -0.0606343 1.04049e-19)
(0.382222 -0.0584102 -3.73458e-20)
(0.461374 -0.0520805 1.41215e-19)
(0.548998 -0.0459974 -5.7462e-19)
(0.0135683 -0.00924255 1.5294e-19)
(0.0481873 -0.0269306 2.50599e-20)
(0.0930227 -0.0403618 5.45869e-20)
(0.145797 -0.0507558 -8.58207e-20)
(0.205618 -0.0579181 -2.25411e-19)
(0.271755 -0.0616896 -1.7005e-19)
(0.34368 -0.0620306 1.23609e-19)
(0.421427 -0.0589124 5.18179e-20)
(0.505867 -0.0525066 2.09142e-19)
(0.595644 -0.0492576 3.84926e-20)
(0.0164567 -0.0104805 -1.29448e-19)
(0.0564954 -0.0296967 2.07758e-19)
(0.106731 -0.0436793 7.33077e-21)
(0.164853 -0.0539755 1.27263e-19)
(0.229947 -0.0605544 -2.05127e-20)
(0.301249 -0.0634296 5.86612e-20)
(0.378156 -0.0627822 1.16662e-19)
(0.460509 -0.058848 -1.13906e-19)
(0.548634 -0.0522196 -6.13943e-20)
(0.639233 -0.0499588 6.00797e-19)
(0.019618 -0.0116255 1.4412e-19)
(0.0654687 -0.0321831 3.2855e-20)
(0.12135 -0.046537 1.22989e-19)
(0.18494 -0.056566 9.30778e-21)
(0.255292 -0.0624132 5.22985e-20)
(0.331582 -0.0642744 1.66964e-19)
(0.413077 -0.062543 -3.85051e-19)
(0.499336 -0.0576754 1.17278e-19)
(0.590094 -0.0504896 -8.21536e-20)
(0.681078 -0.0480662 -1.98006e-19)
(0.023038 -0.0126419 7.66411e-20)
(0.0750665 -0.0343014 -2.71464e-20)
(0.136809 -0.0488072 -5.59696e-20)
(0.205951 -0.0583662 -2.45033e-19)
(0.281511 -0.0633003 8.43996e-20)
(0.362582 -0.0639859 3.12723e-19)
(0.448278 -0.06101 -3.12764e-20)
(0.53786 -0.0550046 7.05809e-20)
(0.630549 -0.0469081 2.24072e-19)
(0.721677 -0.0435603 -5.56037e-20)
(0.0266991 -0.0134953 -9.36497e-20)
(0.0852403 -0.035966 -9.937e-21)
(0.153028 -0.0503657 -2.49781e-19)
(0.227776 -0.0592213 3.34476e-20)
(0.308462 -0.0630322 -2.90213e-19)
(0.394092 -0.0623499 -2.91442e-19)
(0.483619 -0.0579342 1.82166e-20)
(0.576029 -0.0505574 1.72044e-19)
(0.670135 -0.0412254 -4.31326e-19)
(0.761196 -0.0364328 -1.03592e-19)
(0.0305815 -0.014154 -8.51934e-20)
(0.0959346 -0.0370966 -7.51457e-20)
(0.169919 -0.0510967 2.43468e-19)
(0.250294 -0.0589883 -4.47483e-20)
(0.336 -0.0614451 8.92003e-20)
(0.425954 -0.0591855 3.6185e-20)
(0.51896 -0.0531243 2.87499e-19)
(0.613763 -0.0441508 -1.7084e-19)
(0.708865 -0.0333194 6.10398e-21)
(0.79964 -0.0267463 2.66164e-19)
(0.0346628 -0.0145889 1.59461e-19)
(0.107088 -0.0376199 -1.87817e-19)
(0.187385 -0.0508952 2.43975e-20)
(0.273377 -0.057541 -2.70233e-20)
(0.363972 -0.0584001 1.38403e-19)
(0.458005 -0.0543496 -2.10191e-20)
(0.554148 -0.0464457 1.19322e-19)
(0.650947 -0.0356822 5.2683e-20)
(0.746672 -0.0231615 7.93676e-20)
(0.836915 -0.0146134 -4.05218e-20)
(0.038919 -0.014774 -1.48763e-19)
(0.118632 -0.037471 2.91232e-20)
(0.205319 -0.0496698 -6.91842e-21)
(0.296885 -0.0547727 2.41344e-19)
(0.392214 -0.0537857 2.11269e-19)
(0.490069 -0.0477378 9.75227e-20)
(0.58901 -0.0378165 -4.74672e-19)
(0.687426 -0.0251147 1.65577e-19)
(0.783423 -0.0107902 2.28731e-20)
(0.872863 -0.000183638 2.64694e-20)
(0.0433241 -0.0146863 -1.58942e-19)
(0.130493 -0.0365933 1.59105e-19)
(0.223606 -0.0473437 1.55086e-19)
(0.32067 -0.050598 -3.07429e-19)
(0.420549 -0.0475201 -4.26927e-20)
(0.521953 -0.0392841 1.2788e-20)
(0.623353 -0.0272022 2.26178e-19)
(0.723019 -0.0124649 -1.18342e-19)
(0.818946 0.00370598 7.3596e-20)
(0.907293 0.0163623 -7.03678e-20)
(0.04785 -0.0143062 1.6775e-19)
(0.142593 -0.0349399 -1.21416e-20)
(0.242125 -0.0438556 -1.29687e-20)
(0.344571 -0.0449538 6.82701e-20)
(0.448791 -0.0395502 -7.99915e-20)
(0.553454 -0.0289587 2.15873e-20)
(0.656969 -0.0146106 -2.09935e-19)
(0.757521 0.002206 1.48667e-19)
(0.853042 0.0201992 -3.50227e-20)
(0.939999 0.0348181 5.91041e-20)
(0.0524667 -0.0136168 5.8839e-21)
(0.154847 -0.0324732 -6.23213e-20)
(0.260744 -0.0391603 -7.50372e-20)
(0.368419 -0.0377995 7.96862e-20)
(0.476742 -0.029852 2.81236e-19)
(0.584358 -0.0167661 -2.40053e-19)
(0.689636 -8.72933e-05 -4.96211e-20)
(0.790714 0.0187999 -1.4249e-19)
(0.8855 0.0385309 -1.10048e-19)
(0.970772 0.054958 -4.02583e-21)
(0.0571417 -0.0126049 -6.57216e-20)
(0.167165 -0.0291654 2.71878e-21)
(0.279325 -0.0332291 2.20105e-20)
(0.392038 -0.0291169 -3.84712e-20)
(0.504196 -0.0184294 -1.77951e-19)
(0.61444 -0.00274287 4.64009e-20)
(0.721126 0.0162889 1.31182e-19)
(0.822374 0.0371873 2.4772e-20)
(0.916109 0.0585182 -1.25476e-19)
(0.999414 0.0765425 -1.56101e-19)
(0.0618405 -0.0112601 7.76516e-20)
(0.179452 -0.0249985 -9.87955e-20)
(0.297722 -0.0260494 -5.49378e-20)
(0.415242 -0.0189101 -3.28845e-20)
(0.530941 -0.00531295 7.60375e-20)
(0.643475 0.0130452 1.21632e-19)
(0.751209 0.0344093 -8.82654e-22)
(0.85228 0.0572126 6.03184e-20)
(0.944664 0.0799593 1.38234e-19)
(1.02574 0.0993236 1.44931e-19)
(0.0665262 -0.00957579 -1.68096e-20)
(0.191609 -0.0199649 1.18674e-19)
(0.315786 -0.0176254 2.03619e-20)
(0.437844 -0.00720493 -2.56726e-20)
(0.556763 0.00944141 -1.76825e-20)
(0.671235 0.030505 -5.38122e-20)
(0.779659 0.0541393 9.90497e-20)
(0.880218 0.0786986 -1.22174e-19)
(0.970974 0.102638 -3.9449e-20)
(1.04959 0.123049 -4.45351e-20)
(0.0711597 -0.00754903 -6.25343e-20)
(0.20353 -0.0140676 -2.60799e-20)
(0.333363 -0.00797777 8.22424e-20)
(0.459652 0.00595154 -1.54602e-20)
(0.581448 0.0257534 3.70493e-20)
(0.697495 0.0495185 3.83509e-20)
(0.806255 0.0753213 -7.26767e-20)
(0.905986 0.10145 1.26551e-19)
(0.994864 0.126328 4.60333e-21)
(1.07084 0.147468 1.0383e-19)
(0.0757 -0.0051808 4.76543e-21)
(0.215111 -0.00732056 5.06803e-20)
(0.350296 0.00285615 -3.13021e-20)
(0.480475 0.0204915 -6.6655e-20)
(0.604783 0.0435199 -3.34402e-20)
(0.72204 0.0699452 -2.91856e-20)
(0.830792 0.097778 6.12298e-20)
(0.929401 0.125257 -1.8248e-20)
(1.01619 0.150797 -9.79284e-20)
(1.08936 0.172331 -4.96126e-21)
(0.0801045 -0.0024764 1.69609e-20)
(0.226241 0.000250989 -1.01428e-20)
(0.366429 0.0148225 3.36123e-20)
(0.500124 0.0363273 3.40029e-20)
(0.626564 0.0626166 6.5684e-21)
(0.744665 0.0916241 -1.67584e-20)
(0.853078 0.121315 -3.91611e-20)
(0.950298 0.1499 -6.12739e-23)
(1.03481 0.175807 4.07807e-20)
(1.10509 0.197394 -2.82319e-20)
(0.0843296 0.000554357 8.29926e-22)
(0.236812 0.00861029 -5.19729e-21)
(0.381606 0.0278509 -2.9766e-20)
(0.518415 0.0533517 2.30263e-21)
(0.646596 0.0828993 6.26661e-21)
(0.765177 0.114376 6.75541e-21)
(0.872942 0.145724 1.71675e-20)
(0.968537 0.175149 -1.36769e-20)
(1.05064 0.201121 3.61516e-21)
(1.11797 0.222425 -1.42846e-21)
(0.0883313 0.00389694 -5.92573e-21)
(0.246714 0.0177089 -4.86214e-21)
(0.395676 0.041855 -2.47125e-20)
(0.535174 0.0714397 4.92681e-21)
(0.664695 0.104206 4.51468e-21)
(0.783403 0.138007 1.00624e-20)
(0.890231 0.170786 1.09657e-20)
(0.984002 0.20077 -1.23813e-20)
(1.0636 0.226504 3.42796e-21)
(1.12797 0.247197 -1.20914e-21)
(0.0920657 0.00753199 2.63832e-20)
(0.255842 0.0274868 -1.68922e-20)
(0.408493 0.056733 3.74665e-20)
(0.550233 0.0904491 2.28223e-20)
(0.680694 0.126358 1.75496e-21)
(0.799188 0.162308 -5.63338e-21)
(0.904818 0.196273 -3.39752e-20)
(0.996603 0.226528 -5.05285e-21)
(1.07365 0.251723 2.53988e-20)
(1.13511 0.271498 -5.55627e-21)
(0.0954893 0.0114352 1.71991e-20)
(0.264094 0.0378723 1.90171e-20)
(0.419921 0.0723681 -1.81559e-20)
(0.56344 0.110222 -5.45969e-20)
(0.694441 0.149163 -4.36563e-20)
(0.812399 0.187062 1.92931e-20)
(0.916601 0.221951 7.80312e-21)
(1.00628 0.252186 -1.31023e-20)
(1.08077 0.276554 -5.60372e-20)
(1.1394 0.295124 3.26345e-21)
(0.0985605 0.0155772 -3.76167e-20)
(0.271371 0.0487828 -5.21528e-21)
(0.429832 0.0886298 3.23817e-20)
(0.574659 0.130587 3.84884e-20)
(0.705806 0.172416 2.28874e-20)
(0.822925 0.212042 5.91188e-21)
(0.925501 0.247584 -3.16359e-20)
(1.01299 0.277511 5.53751e-20)
(1.08496 0.300778 2.92694e-20)
(1.14091 0.317888 4.05718e-20)
(0.10124 0.0199242 -4.71955e-20)
(0.277587 0.0601254 1.00766e-19)
(0.438112 0.105375 -1.90295e-20)
(0.583768 0.15136 1.60455e-20)
(0.714678 0.195905 8.03334e-21)
(0.830681 0.237017 -6.52415e-20)
(0.931467 0.272934 1.58669e-20)
(1.01672 0.302273 -2.21876e-20)
(1.08625 0.324184 -4.51481e-20)
(1.1397 0.339611 -2.7005e-20)
(0.103492 0.0244376 3.81011e-20)
(0.28266 0.0717975 -1.004e-19)
(0.444663 0.12245 -1.94236e-20)
(0.590669 0.172348 -6.67496e-22)
(0.720974 0.219409 5.46764e-21)
(0.835607 0.261752 6.09881e-20)
(0.934472 0.297768 2.03526e-20)
(1.01749 0.32625 4.97014e-20)
(1.0847 0.346575 4.95992e-20)
(1.13585 0.36013 3.39265e-20)
(0.105285 0.0290751 -4.04529e-20)
(0.286523 0.0836883 -1.93895e-20)
(0.449403 0.139692 1.20318e-20)
(0.595282 0.19335 -1.04299e-20)
(0.724631 0.242703 -1.26313e-19)
(0.837668 0.286014 3.91075e-20)
(0.934515 0.321856 1.97904e-20)
(1.01533 0.349229 1.76548e-20)
(1.08037 0.367761 6.03068e-21)
(1.12949 0.379293 -7.56616e-20)
(0.106591 0.0337906 4.04672e-20)
(0.289119 0.0956802 -4.06675e-20)
(0.452267 0.15693 -3.21316e-20)
(0.597553 0.21416 3.91041e-20)
(0.725613 0.265562 1.02663e-19)
(0.836857 0.309573 -8.0825e-20)
(0.93162 0.344975 -4.52531e-20)
(1.01029 0.371007 -3.78331e-20)
(1.07335 0.387563 -5.77533e-20)
(1.12071 0.396959 2.48776e-20)
(0.107388 0.0385352 1.37952e-20)
(0.290406 0.10765 3.80932e-20)
(0.453212 0.173991 1.07084e-20)
(0.597449 0.234571 2.47482e-20)
(0.723911 0.287763 -6.4767e-20)
(0.833192 0.332203 -1.0193e-20)
(0.925834 0.366914 -1.04249e-20)
(1.00246 0.391393 3.30008e-20)
(1.06374 0.40582 1.13856e-20)
(1.10962 0.412992 2.50386e-21)
(0.107661 0.0432577 -4.31547e-21)
(0.290357 0.119471 3.85648e-20)
(0.452215 0.190696 1.70078e-20)
(0.594965 0.254375 -6.43481e-20)
(0.719542 0.309085 -1.31956e-20)
(0.826715 0.353688 -5.43707e-21)
(0.917224 0.38747 7.11861e-20)
(0.991913 0.410211 -3.33023e-20)
(1.05168 0.422398 3.26518e-20)
(1.09633 0.427268 -1.56426e-20)
(0.1074 0.0479055 -3.07387e-20)
(0.28896 0.131015 2.48478e-20)
(0.449275 0.20687 1.06622e-20)
(0.590119 0.273367 5.86514e-20)
(0.71255 0.329316 3.31459e-20)
(0.817494 0.373825 4.4606e-20)
(0.90588 0.406457 -8.25422e-20)
(0.97877 0.427288 6.82292e-21)
(1.03724 0.437169 1.80513e-20)
(1.08103 0.43968 1.13489e-20)
(0.106602 0.0524256 3.21683e-20)
(0.286218 0.142154 -3.90125e-20)
(0.444414 0.222335 -3.08654e-20)
(0.582956 0.29135 3.10462e-20)
(0.703005 0.348253 -1.82643e-20)
(0.805623 0.39242 4.59703e-21)
(0.89191 0.423704 3.31854e-20)
(0.963134 0.442487 -9.05344e-21)
(1.02055 0.449984 -1.15465e-21)
(1.0639 0.450159 1.26591e-20)
(0.105271 0.0567648 -1.24513e-20)
(0.282153 0.152759 -4.24632e-21)
(0.437675 0.236924 7.01769e-21)
(0.573547 0.308132 4.09915e-21)
(0.691003 0.365706 -1.95622e-20)
(0.79122 0.409299 5.20062e-21)
(0.875441 0.439061 1.06278e-20)
(0.945133 0.455684 2.69534e-21)
(1.00173 0.460741 -4.18296e-20)
(1.045 0.458598 -2.4004e-20)
(0.103419 0.0608714 6.78931e-21)
(0.276801 0.162709 8.1837e-21)
(0.429125 0.25047 -2.28961e-20)
(0.561986 0.323532 -1.78162e-20)
(0.676667 0.381496 -9.80308e-21)
(0.774425 0.424301 6.47524e-21)
(0.856621 0.452396 -1.81084e-20)
(0.924902 0.466776 1.19419e-20)
(0.980901 0.469356 4.75589e-20)
(1.02445 0.464902 1.59485e-20)
(0.101062 0.0646948 6.72746e-21)
(0.270215 0.171884 1.0444e-20)
(0.418848 0.262818 7.96228e-21)
(0.548394 0.337381 7.83853e-21)
(0.660146 0.395461 5.73933e-21)
(0.755405 0.437287 -3.49533e-20)
(0.835618 0.463599 -2.73248e-20)
(0.902584 0.475681 1.83414e-20)
(0.95816 0.475762 -4.41702e-20)
(1.00236 0.46898 2.1098e-20)
(0.0982241 0.0681864 -1.09221e-20)
(0.262462 0.180172 -5.85013e-21)
(0.406953 0.273822 1.0732e-20)
(0.532913 0.349522 -2.69458e-21)
(0.641612 0.407453 -1.21775e-20)
(0.734355 0.448133 -4.03004e-20)
(0.812623 0.472583 6.79447e-20)
(0.878337 0.482351 -4.58226e-20)
(0.933587 0.479923 2.6012e-20)
(0.978779 0.470744 1.6183e-19)
(0.0949357 0.0713016 2.33483e-20)
(0.253621 0.18747 -2.0627e-20)
(0.393564 0.283346 4.26694e-21)
(0.515709 0.359811 6.74021e-22)
(0.621263 0.417339 -4.98282e-20)
(0.711491 0.456735 -1.85433e-20)
(0.787857 0.479283 -2.27137e-20)
(0.852336 0.486765 -5.9612e-20)
(0.907238 0.481835 9.51934e-20)
(0.953719 0.470101 -2.52567e-19)
(0.0912313 0.0739983 -7.67261e-20)
(0.243787 0.193679 3.84148e-20)
(0.378822 0.291266 -7.73707e-20)
(0.496963 0.368119 1.97442e-20)
(0.599317 0.425003 9.21422e-20)
(0.68706 0.463003 5.35282e-20)
(0.761577 0.483654 -9.0481e-20)
(0.824789 0.488939 -6.33895e-20)
(0.879144 0.481535 -1.38086e-20)
(0.927099 0.46692 -1.33669e-19)
(0.0871501 0.0762382 -2.68372e-20)
(0.233063 0.198712 -2.76528e-20)
(0.362883 0.297472 6.42825e-20)
(0.476875 0.37433 4.6523e-20)
(0.576009 0.430339 -6.20088e-20)
(0.661333 0.466861 5.0678e-20)
(0.734084 0.48567 4.20091e-20)
(0.795977 0.488935 3.80256e-20)
(0.849389 0.479162 -3.36215e-19)
(0.89859 0.461088 5.29737e-19)
(0.0827354 0.0779869 1.23381e-20)
(0.22156 0.202494 5.72207e-20)
(0.345914 0.301865 5.83368e-21)
(0.455655 0.378342 -1.59576e-19)
(0.551589 0.433254 5.79037e-20)
(0.634601 0.468233 1.75975e-20)
(0.705729 0.485301 1.17666e-19)
(0.766322 0.486848 6.78405e-20)
(0.818374 0.475136 1.11098e-19)
(0.867513 0.453315 -1.29989e-19)
(0.078034 0.0792143 -6.20066e-20)
(0.209399 0.204955 -1.34277e-19)
(0.328089 0.304363 9.08007e-20)
(0.433519 0.380069 1.35452e-19)
(0.526308 0.433667 -3.86054e-20)
(0.607158 0.467042 -7.59337e-20)
(0.676885 0.482467 -2.39516e-19)
(0.736439 0.482624 3.17059e-19)
(0.787264 0.469867 -7.99579e-20)
(0.833111 0.445268 1.63875e-20)
(0.0730953 0.079895 1.37708e-19)
(0.196705 0.206043 2.56203e-19)
(0.309588 0.304897 5.09606e-21)
(0.410688 0.379443 -1.13535e-19)
(0.500412 0.431509 6.28485e-20)
(0.579268 0.463211 1.70006e-19)
(0.647871 0.477031 -1.00624e-19)
(0.70694 0.475847 9.21559e-20)
(0.757918 0.462221 1.22502e-19)
(0.804376 0.436958 -1.20576e-19)
(0.0679708 0.0800084 -6.08066e-20)
(0.183606 0.205714 -1.62097e-19)
(0.290596 0.303421 -1.1855e-19)
(0.387379 0.376418 1.59306e-19)
(0.474134 0.42674 4.62475e-20)
(0.55116 0.456698 -1.35685e-19)
(0.618866 0.468933 1.04061e-19)
(0.677783 0.466416 -1.87731e-19)
(0.729247 0.451784 2.10563e-19)
(0.776172 0.426031 -2.62713e-19)
(0.0627144 0.0795395 -1.17294e-19)
(0.170238 0.20394 1.82543e-19)
(0.271298 0.299903 1.09452e-20)
(0.36381 0.37097 1.19623e-19)
(0.447702 0.419349 -3.33385e-19)
(0.523047 0.447505 -3.31293e-19)
(0.59003 0.458199 1.90416e-19)
(0.648978 0.454443 5.67677e-21)
(0.701009 0.438899 -1.80632e-19)
(0.748381 0.412873 6.3017e-19)
(0.0573817 0.0784795 1.40646e-19)
(0.156736 0.200708 -2.04993e-19)
(0.251885 0.294336 1.25543e-19)
(0.340199 0.363102 -8.78115e-20)
(0.421344 0.409352 -3.88995e-20)
(0.495145 0.435669 4.9986e-19)
(0.561546 0.444898 -4.13695e-19)
(0.620654 0.440068 1.25928e-19)
(0.673336 0.423875 1.7415e-19)
(0.721302 0.397925 -1.92981e-19)
(0.0520294 0.0768257 -2.49104e-19)
(0.143237 0.196017 2.55553e-20)
(0.232545 0.286729 -5.27e-20)
(0.316766 0.352839 -1.59263e-19)
(0.395287 0.396793 -3.02905e-19)
(0.467672 0.421254 -1.91258e-19)
(0.53361 0.429117 -5.13633e-20)
(0.592981 0.423412 6.3177e-21)
(0.64639 0.406867 -1.31784e-19)
(0.695083 0.381336 7.16207e-20)
(0.0467148 0.0745818 -1.17411e-19)
(0.12988 0.189883 2.60015e-19)
(0.213467 0.277113 -2.54342e-20)
(0.293728 0.340228 2.66958e-20)
(0.369757 0.381734 1.83527e-19)
(0.440848 0.404339 1.30256e-19)
(0.506428 0.410954 3.79338e-19)
(0.566145 0.404584 2.19655e-19)
(0.620341 0.387974 -7.04193e-19)
(0.669866 0.363155 1.37825e-19)
(0.041495 0.0717576 1.95952e-19)
(0.116801 0.182336 -3.15077e-19)
(0.194838 0.265538 -4.58241e-20)
(0.271297 0.325335 1.87349e-19)
(0.344977 0.364259 1.12685e-19)
(0.414893 0.385021 5.66942e-19)
(0.480206 0.390512 -4.7638e-19)
(0.540335 0.383689 3.87053e-20)
(0.595365 0.367279 4.00283e-19)
(0.645803 0.343422 3.64178e-19)
(0.0364261 0.0683694 3.36426e-20)
(0.104135 0.173419 3.81339e-19)
(0.176841 0.252069 1.77087e-19)
(0.249683 0.308247 -9.9226e-20)
(0.321163 0.344467 -1.81505e-19)
(0.390019 0.363408 -5.12523e-21)
(0.455147 0.367905 1.56948e-19)
(0.515739 0.360833 8.19041e-20)
(0.571634 0.344867 -2.08051e-19)
(0.623039 0.322187 -4.5777e-20)
(0.031563 0.0644389 6.05628e-20)
(0.0920123 0.163189 -3.69354e-19)
(0.159652 0.236791 -2.2817e-19)
(0.229087 0.289068 3.24903e-19)
(0.298526 0.322477 3.07452e-20)
(0.366433 0.339625 -4.19558e-19)
(0.431445 0.343255 2.6827e-19)
(0.492536 0.336125 -1.30089e-19)
(0.54931 0.320825 2.07643e-19)
(0.60171 0.29951 -9.5553e-20)
(0.026958 0.0599937 -3.67031e-20)
(0.0805566 0.151716 2.16818e-19)
(0.143439 0.219804 -1.0931e-19)
(0.2097 0.267919 -1.31031e-19)
(0.277264 0.298421 1.98662e-19)
(0.344329 0.313808 2.55381e-20)
(0.409284 0.316691 1.51893e-20)
(0.470894 0.309683 1.15655e-19)
(0.528543 0.295248 -1.46828e-19)
(0.581938 0.275465 -3.4233e-19)
(0.0226608 0.0550665 -3.59357e-20)
(0.0698856 0.13908 -1.02383e-19)
(0.128362 0.201223 3.84863e-19)
(0.191703 0.244936 -2.72992e-19)
(0.257564 0.272447 -1.86639e-19)
(0.323889 0.286105 -2.72104e-19)
(0.388834 0.288356 -2.10195e-19)
(0.450968 0.281634 -6.68521e-20)
(0.509467 0.268243 -1.50157e-19)
(0.563836 0.25014 1.81126e-19)
(0.0187174 0.0496946 -9.27097e-20)
(0.0601084 0.125374 -3.10944e-21)
(0.114568 0.181176 -1.11935e-19)
(0.175263 0.22027 -1.93293e-19)
(0.239598 0.244715 7.86326e-20)
(0.305282 0.256677 -5.95657e-20)
(0.370252 0.258403 -2.00376e-19)
(0.432898 0.252115 -1.33788e-19)
(0.492205 0.239926 1.89518e-19)
(0.547501 0.223635 7.89592e-20)
(0.01517 0.04392 2.99671e-19)
(0.0513249 0.1107 4.83932e-21)
(0.10219 0.159805 3.29666e-20)
(0.160531 0.194086 9.65165e-20)
(0.223523 0.215401 -6.43679e-20)
(0.288659 0.225698 3.43725e-19)
(0.353679 0.226993 4.0566e-19)
(0.41681 0.221272 2.64712e-19)
(0.476865 0.210425 -3.3479e-20)
(0.53302 0.196064 -3.85787e-20)
(0.0120566 0.0377881 -2.3319e-19)
(0.0436242 0.0951679 -7.7873e-21)
(0.0913496 0.137263 -4.31614e-20)
(0.147644 0.166562 1.91307e-19)
(0.209478 0.184691 -2.52475e-20)
(0.274155 0.193351 -5.79691e-20)
(0.339239 0.1943 -1.82105e-19)
(0.402814 0.189261 -1.10993e-19)
(0.463541 0.179876 6.45086e-20)
(0.520468 0.167548 -1.49187e-19)
(0.00941005 0.0313482 -8.00084e-20)
(0.0370845 0.0788966 -8.83485e-21)
(0.0821514 0.113713 -1.44735e-20)
(0.13672 0.137884 9.68312e-22)
(0.197585 0.15278 4.34972e-20)
(0.261886 0.15983 -1.65375e-19)
(0.32704 0.160504 1.20726e-19)
(0.391006 0.156246 -1.74716e-19)
(0.452314 0.148427 -7.74762e-20)
(0.509911 0.138218 8.52702e-20)
(0.00725853 0.0246521 2.60141e-20)
(0.031772 0.0620114 -4.40873e-20)
(0.0746843 0.0893249 1.3927e-19)
(0.127859 0.10825 1.64624e-20)
(0.187946 0.119875 6.39067e-20)
(0.251952 0.125335 3.30806e-20)
(0.317171 0.125796 -1.36354e-19)
(0.381463 0.122399 1.33209e-19)
(0.443252 0.11623 1.12729e-19)
(0.501401 0.108214 -1.79883e-19)
(0.00562474 0.0177544 6.33093e-21)
(0.0277401 0.0446428 6.37559e-20)
(0.0690203 0.0642787 -3.08642e-20)
(0.121141 0.0778639 -1.193e-19)
(0.180643 0.0861884 -9.93493e-20)
(0.244431 0.0900758 1.6516e-20)
(0.309706 0.0903712 -8.81675e-21)
(0.37425 0.0878989 8.29408e-20)
(0.436408 0.0834457 7.11678e-20)
(0.494982 0.0776786 1.27562e-19)
(0.00452591 0.0107112 5.63691e-20)
(0.0250294 0.0269259 -3.1113e-20)
(0.0652138 0.0387581 6.17344e-20)
(0.116628 0.0469362 4.07741e-20)
(0.17574 0.0519393 3.20076e-20)
(0.239384 0.0542666 -3.29687e-20)
(0.304699 0.0544301 1.78342e-20)
(0.369415 0.0529285 1.87265e-21)
(0.431823 0.0502377 -1.32707e-20)
(0.490685 0.046761 -9.06445e-20)
(0.00397358 0.00358017 -6.66613e-21)
(0.0236673 0.00899871 -8.23717e-21)
(0.0633013 0.0129512 -5.39614e-20)
(0.114361 0.0156818 -3.80069e-21)
(0.173278 0.0173509 2.71065e-20)
(0.236851 0.0181258 1.39883e-20)
(0.302186 0.018178 3.4179e-21)
(0.36699 0.0176744 -4.12441e-20)
(0.429524 0.0167744 2.42412e-20)
(0.488531 0.0156127 -2.78289e-20)
(0.00397358 -0.00358017 3.72177e-22)
(0.0236673 -0.00899871 -2.23276e-20)
(0.0633013 -0.0129513 -4.78362e-20)
(0.114361 -0.0156818 1.54152e-21)
(0.173278 -0.0173509 2.48681e-20)
(0.236851 -0.0181258 4.6436e-21)
(0.302186 -0.018178 9.31618e-21)
(0.36699 -0.0176744 -3.47371e-20)
(0.429524 -0.0167744 2.5081e-20)
(0.488531 -0.0156127 -2.83391e-20)
(0.00452591 -0.0107112 4.06361e-20)
(0.0250294 -0.0269259 -2.13282e-20)
(0.0652138 -0.0387581 7.5516e-20)
(0.116628 -0.0469362 6.95608e-20)
(0.17574 -0.0519393 -1.56623e-20)
(0.239384 -0.0542666 -1.23011e-20)
(0.304699 -0.0544301 1.77224e-20)
(0.369415 -0.0529285 -1.51809e-20)
(0.431823 -0.0502377 -3.16375e-20)
(0.490685 -0.046761 -1.98125e-20)
(0.00562474 -0.0177544 3.84364e-20)
(0.0277401 -0.0446428 3.91779e-20)
(0.0690203 -0.0642787 -3.82002e-20)
(0.121141 -0.0778639 -1.17842e-19)
(0.180643 -0.0861885 -5.91529e-20)
(0.244431 -0.0900758 -2.69046e-20)
(0.309706 -0.0903712 1.83172e-20)
(0.37425 -0.0878989 7.33045e-20)
(0.436408 -0.0834457 -3.38835e-20)
(0.494982 -0.0776786 2.36433e-19)
(0.00725853 -0.0246521 -1.82871e-21)
(0.031772 -0.0620114 -1.15584e-20)
(0.0746843 -0.0893249 7.3361e-20)
(0.127859 -0.10825 4.28264e-20)
(0.187946 -0.119875 5.53009e-20)
(0.251952 -0.125335 5.18828e-20)
(0.317171 -0.125796 -1.46608e-19)
(0.381463 -0.122399 1.02214e-19)
(0.443252 -0.11623 1.37613e-19)
(0.501401 -0.108214 -1.17139e-19)
(0.00941005 -0.0313482 -6.09489e-20)
(0.0370845 -0.0788966 3.65633e-20)
(0.0821514 -0.113713 5.78712e-21)
(0.13672 -0.137884 -6.62158e-21)
(0.197585 -0.15278 -5.29459e-20)
(0.261886 -0.15983 -9.8959e-20)
(0.32704 -0.160504 3.97706e-20)
(0.391006 -0.156246 -1.21331e-19)
(0.452314 -0.148427 -1.17607e-19)
(0.509911 -0.138218 7.55806e-20)
(0.0120566 -0.0377881 -1.64273e-19)
(0.0436242 -0.0951679 9.643e-21)
(0.0913496 -0.137263 -9.10335e-20)
(0.147644 -0.166562 7.67524e-20)
(0.209478 -0.184691 1.66428e-19)
(0.274155 -0.193351 -1.05695e-19)
(0.339239 -0.1943 -2.45914e-19)
(0.402814 -0.189261 -4.85554e-20)
(0.463541 -0.179876 -1.51241e-20)
(0.520468 -0.167548 -7.90054e-20)
(0.01517 -0.04392 2.90871e-19)
(0.0513249 -0.1107 -5.18011e-20)
(0.10219 -0.159805 3.39418e-20)
(0.160531 -0.194086 1.17319e-19)
(0.223523 -0.215401 -7.29661e-21)
(0.288659 -0.225698 3.93636e-19)
(0.353679 -0.226993 3.72039e-19)
(0.41681 -0.221272 2.86719e-19)
(0.476865 -0.210425 -1.66566e-19)