/*--------------------------------*- C++ -*----------------------------------*\
  =========                 |
  \\      /  F ield         | OpenFOAM: The Open Source CFD Toolbox
   \\    /   O peration     | Website:  https://openfoam.org
    \\  /    A nd           | Version:  7
     \\/     M anipulation  |
\*---------------------------------------------------------------------------*/
FoamFile
{
    version     2.0;
    format      ascii;
    class       surfaceScalarField;
    location    "15";
    object      phi;
}
// * * * * * * * * * * * * * * * * * * * * * * * * * * * * * * * * * * * * * //

dimensions      [0 3 -1 0 0 0 0];

internalField   nonuniform List<scalar> 
25237
(
-7.89389e-06
7.87188e-06
2.20116e-08
-2.80748e-05
2.01384e-05
4.25739e-08
-5.86169e-05
3.04966e-05
4.54871e-08
-9.77356e-05
3.90847e-05
3.40786e-08
-0.000143913
4.61659e-05
1.12723e-08
-0.000196047
5.21555e-05
-2.1475e-08
-0.000253627
5.76444e-05
-6.47341e-08
-0.000316964
6.34584e-05
-1.20987e-07
-0.000387388
7.06178e-05
-1.94021e-07
8.05234e-05
-2.88769e-07
-0.000467622
-7.77297e-06
1.56448e-05
-2.76643e-05
4.00297e-05
-5.77643e-05
6.05966e-05
-9.62807e-05
7.76011e-05
-0.000141661
9.15463e-05
-0.000192738
0.000103232
-0.000248895
0.000113802
-0.000310304
0.000124867
-0.000378125
0.000138439
0.000157243
-0.000454844
-7.53754e-06
2.31824e-05
-2.68626e-05
5.93547e-05
-5.60962e-05
8.98301e-05
-9.343e-05
0.000114935
-0.000137245
0.000135361
-0.000186244
0.000152232
-0.000239609
0.000167166
-0.00029723
0.000182488
-0.000359944
0.000201153
0.000227062
-0.000429764
-7.19956e-06
3.03819e-05
-2.57058e-05
7.7861e-05
-5.36804e-05
0.000117805
-8.9291e-05
0.000150546
-0.000130823
0.000176893
-0.000176793
0.000198202
-0.000226086
0.000216459
-0.000278186
0.000234589
-0.000333464
0.000256431
0.000286823
-0.000393224
-6.77577e-06
3.71577e-05
-2.42442e-05
9.53294e-05
-5.0612e-05
0.000144173
-8.40138e-05
0.000183947
-0.000122613
0.000215492
-0.000164696
0.000240285
-0.000208765
0.000260528
-0.000253778
0.000279602
-0.000299521
0.000302174
0.000333639
-0.000346337
-6.2864e-06
4.34441e-05
-2.25385e-05
0.000111582
-4.70048e-05
0.000168639
-7.77769e-05
0.000214719
-0.000112877
0.000250593
-0.000150318
0.000277726
-0.000188154
0.000298364
-0.000224702
0.000316149
-0.000259063
0.000336536
0.000364888
-0.000290313
-5.75362e-06
4.91977e-05
-2.06551e-05
0.000126483
-4.29825e-05
0.000190966
-7.07716e-05
0.000242509
-0.000101887
0.000281707
-0.000134039
0.000309879
-0.000164777
0.000329102
-0.000191657
0.000343029
-0.000213012
0.000357891
0.000378146
-0.000226271
-5.1999e-06
5.43976e-05
-1.86606e-05
0.000139944
-3.86673e-05
0.000210973
-6.31828e-05
0.000267024
-8.98983e-05
0.000308423
-0.000116205
0.000336185
-0.000139095
0.000351992
-0.000155239
0.000359172
-0.000162101
0.000364753
0.000371098
-0.000155052
-4.64635e-06
5.9044e-05
-1.66167e-05
0.000151914
-3.41691e-05
0.000228525
-5.51695e-05
0.000288024
-7.7119e-05
0.000330372
-9.70702e-05
0.000356136
-0.000111426
0.000366348
-0.000115814
0.00036356
-0.000106645
0.000355585
0.000341709
-7.72564e-05
-4.11128e-06
6.31553e-05
-1.45753e-05
0.000162378
-2.95754e-05
0.000243525
-4.68457e-05
0.000305295
-6.36724e-05
0.000347199
-7.6749e-05
0.000369213
-8.18648e-05
0.000371463
-7.34248e-05
0.00035512
-4.58369e-05
0.000327997
0.000291596
4.27649e-06
-3.60903e-06
6.67643e-05
-1.25741e-05
0.000171343
-2.4942e-05
0.000255893
-3.82643e-05
0.000318617
-4.957e-05
0.000358505
-5.5156e-05
0.000374799
-5.01817e-05
0.000366489
-2.79966e-05
0.000332935
2.11643e-05
0.000278836
0.000211374
0.000101386
-3.14912e-06
6.99134e-05
-1.06341e-05
0.000178828
-2.02869e-05
0.000265546
-2.9404e-05
0.000327734
-3.46879e-05
0.000363789
-3.1966e-05
0.000372077
-1.56407e-05
0.000350164
2.18252e-05
0.000295469
9.24682e-05
0.000208193
9.66324e-05
0.00020721
-2.73574e-06
7.26492e-05
-8.75736e-06
0.00018485
-1.55857e-05
0.000272374
-2.01643e-05
0.000332313
-1.87571e-05
0.000362382
-6.60465e-06
0.000359924
2.2783e-05
0.000320776
7.86551e-05
0.000239597
0.000175205
0.000111644
-5.62102e-05
0.000328047
-2.36744e-06
7.50166e-05
-6.92555e-06
0.000189408
-1.07707e-05
0.00027622
-1.03652e-05
0.000331907
-1.37319e-06
0.00035339
2.17599e-05
0.000336791
6.65868e-05
0.000275949
0.000143965
0.000162219
0.000272337
-1.67282e-05
-0.00025193
0.000468057
-2.03686e-06
7.70535e-05
-5.09943e-06
0.00019247
-5.73045e-06
0.000276851
2.64722e-07
0.000325912
1.80012e-05
0.000335653
5.41386e-05
0.000300654
0.000117628
0.00021246
0.000220944
5.89025e-05
0.000388221
-0.000184005
-0.000494702
0.000630993
-1.73065e-06
7.87841e-05
-3.21768e-06
0.000193957
-2.85844e-07
0.000273919
1.20205e-05
0.000313606
3.99919e-05
0.000307682
9.16822e-05
0.000248964
0.000177872
0.00012627
0.000312721
-7.59472e-05
0.000527075
-0.000398359
-0.000786511
0.000818884
-1.42902e-06
8.02131e-05
-1.19295e-06
0.000193721
5.69465e-06
0.000267031
2.53309e-05
0.000293969
6.53277e-05
0.000267685
0.000135612
0.000178679
0.00024928
1.26034e-05
0.000422315
-0.000248983
0.000691585
-0.000667629
-0.00112555
0.00103062
-1.10645e-06
8.13196e-05
1.06597e-06
0.000191549
1.25268e-05
0.00025557
4.06604e-05
0.000265836
9.48066e-05
0.000213539
0.000187171
8.63147e-05
0.000333608
-0.000133834
0.000552396
-0.00046777
0.000881621
-0.000996853
-0.00150502
0.00126109
-7.33724e-07
8.20533e-05
3.68245e-06
0.000187133
2.04817e-05
0.000238771
5.85477e-05
0.00022777
0.000129288
0.000142799
0.000247554
-3.19516e-05
0.000432185
-0.000318465
0.000704773
-0.000740359
0.00109369
-0.00138577
-0.00191633
0.00150499
-2.47769e-07
8.23011e-05
6.84305e-06
0.000180042
2.99024e-05
0.000215712
7.95882e-05
0.000178084
0.000169654
5.2733e-05
0.000317809
-0.000180106
0.00054557
-0.000546226
0.000878228
-0.00107302
0.00132322
-0.00183076
-0.00236695
0.00177385
4.01087e-07
8.19e-05
1.07076e-05
0.000169735
4.11572e-05
0.000185262
0.000104407
0.000114835
0.000216754
-5.96142e-05
0.00039869
-0.000362042
0.000673266
-0.000820802
0.00106591
-0.00146567
0.0015608
-0.00232565
-0.00308925
0.00228309
1.22574e-06
8.06742e-05
1.54507e-05
0.000155511
5.46215e-05
0.000146091
0.000133607
3.58491e-05
0.000271303
-0.00019731
0.000490485
-0.000581224
0.000813858
-0.00114418
0.00125986
-0.00191167
0.00180158
-0.00286737
-0.00379721
0.00250955
2.31036e-06
7.83639e-05
2.12496e-05
0.000136571
7.06441e-05
9.66967e-05
0.000167697
-6.12035e-05
0.000333729
-0.000363343
0.000592713
-0.000840208
0.00096436
-0.00151582
0.00145364
-0.00240094
0.00202656
-0.0034403
-0.00446948
0.00269883
3.69711e-06
7.46668e-05
2.82587e-05
0.00011201
8.95085e-05
3.5447e-05
0.000206996
-0.000178691
0.000403976
-0.000560323
0.000703785
-0.00114002
0.00111949
-0.00193153
0.00163925
-0.0029207
0.00221818
-0.00401923
-0.00509246
0.00284116
5.42505e-06
6.92417e-05
3.65975e-05
8.08372e-05
0.000111394
-3.93497e-05
0.000251549
-0.000318845
0.000481316
-0.00079009
0.000820776
-0.00147948
0.00127217
-0.00238293
0.0018059
-0.00345443
0.0023679
-0.00458122
-0.0056536
0.00292904
7.52425e-06
6.17175e-05
4.63404e-05
4.20211e-05
0.000136345
-0.000129355
0.000301048
-0.000483549
0.000564219
-0.00105326
0.000939403
-0.00185466
0.00141448
-0.002858
0.00194415
-0.0039841
0.00247097
-0.00510805
-0.00614706
0.00296443
1.00142e-05
5.17033e-05
5.75101e-05
-5.47479e-06
0.000164248
-0.000236092
0.000354787
-0.000674088
0.00065032
-0.00134879
0.00105435
-0.0022587
0.00153882
-0.00334247
0.00204778
-0.00449306
0.00252737
-0.00558764
-0.0065734
0.00295372
1.29033e-05
3.87999e-05
7.00722e-05
-6.26436e-05
0.000194812
-0.000360832
0.000411626
-0.000890902
0.000736513
-0.00167368
0.00115996
-0.00268214
0.00163916
-0.00382167
0.00211427
-0.00496816
0.00254069
-0.00601406
-0.00693723
0.00290451
1.61886e-05
2.26113e-05
8.39309e-05
-0.000130386
0.000227561
-0.000504462
0.000470007
-0.00113335
0.000819189
-0.00202286
0.00125098
-0.00311394
0.00171173
-0.00428242
0.00214433
-0.00540076
0.0025165
-0.00638624
-0.0072454
0.00282468
1.98546e-05
2.75674e-06
9.89248e-05
-0.000209456
0.000261825
-0.000667362
0.000528
-0.00139952
0.000894617
-0.00238948
0.00132337
-0.00354269
0.00175523
-0.00471427
0.00214095
-0.00578648
0.00246121
-0.0067065
-0.00750547
0.00272128
2.38717e-05
-2.1115e-05
0.000114823
-0.000300408
0.000296746
-0.000849286
0.000583427
-0.0016862
0.000959386
-0.00276544
0.00137463
-0.00395794
0.00177044
-0.00511008
0.0021084
-0.00612443
0.00238106
-0.00697916
-0.00772466
0.00260025
2.81962e-05
-4.93112e-05
0.000131325
-0.000403536
0.000331304
-0.00104926
0.000634045
-0.00198894
0.00101079
-0.00314219
0.00140388
-0.00435103
0.00175963
-0.00546583
0.00205142
-0.00641621
0.00228165
-0.00720939
-0.00790939
0.00246638
3.27667e-05
-8.20779e-05
0.000148059
-0.000518829
0.000364361
-0.00126557
0.000677758
-0.00230234
0.00104709
-0.00351152
0.00141162
-0.00471556
0.00172591
-0.00578012
0.00197465
-0.00666495
0.00216773
-0.00740247
-0.008065
0.00232333
3.75047e-05
-0.000119583
0.000164598
-0.000645922
0.000394738
-0.00149571
0.00071283
-0.00262043
0.00106753
-0.00386622
0.00139936
-0.00504739
0.00167275
-0.00605351
0.00188232
-0.00687452
0.00204316
-0.00756332
-0.00819572
0.00217389
4.23158e-05
-0.000161898
0.000180471
-0.000784078
0.000421302
-0.00173654
0.000738026
-0.00293716
0.00107226
-0.00420045
0.00136923
-0.00534437
0.00160357
-0.00628785
0.00177809
-0.00704905
0.00191099
-0.00769621
-0.00830483
0.0020201
4.70915e-05
-0.00020899
0.000195186
-0.000932172
0.000443058
-0.00198441
0.000752679
-0.00324678
0.00106212
-0.00450989
0.00132367
-0.00560592
0.0015216
-0.00648578
0.00166502
-0.00719247
0.00177355
-0.00780474
-0.00839475
0.00186346
5.1713e-05
-0.000260703
0.000208259
-0.00108872
0.000459226
-0.00223538
0.000756665
-0.00354422
0.00103844
-0.00479166
0.00126515
-0.00583263
0.00142965
-0.00665028
0.00154556
-0.00730837
0.0016326
-0.00789178
-0.00846722
0.00170508
5.60561e-05
-0.000316759
0.000219246
-0.00125191
0.000469288
-0.00248542
0.000750321
-0.00382525
0.00100282
-0.00504416
0.00119607
-0.00602589
0.00133019
-0.00678439
0.00142169
-0.00739988
0.0014895
-0.00795959
-0.00852348
0.00154575
5.99973e-05
-0.000376756
0.000227768
-0.00141968
0.000473005
-0.00273065
0.000734336
-0.00408658
0.000956949
-0.00526677
0.00111861
-0.00618754
0.00122523
-0.00689102
0.00129495
-0.0074696
0.00134522
-0.00800985
-0.00856438
0.00138611
6.3419e-05
-0.000440175
0.000233532
-0.00158979
0.000470397
-0.00296752
0.000709632
-0.00432581
0.000902534
-0.00545967
0.00103468
-0.00631969
0.00111645
-0.00697279
0.00116652
-0.00751967
0.00120051
-0.00804385
-0.00859051
0.00122665
6.62154e-05
-0.000506391
0.000236349
-0.00175993
0.00046171
-0.00319288
0.000677261
-0.00454137
0.000841175
-0.00562359
0.000945957
-0.00642447
0.00100521
-0.00703204
0.00103731
-0.00755177
0.00105595
-0.00806248
-0.00860229
0.00106772
6.82965e-05
-0.000574687
0.000236133
-0.00192776
0.000447359
-0.00340411
0.000638327
-0.00473233
0.00077434
-0.0057596
0.000853845
-0.00650398
0.000892575
-0.00707077
0.000908039
-0.00756723
0.000911969
-0.00806641
-0.00859993
0.000909613
6.95923e-05
-0.00064428
0.000232899
-0.00209107
0.000427879
-0.00359909
0.000593917
-0.00489837
0.000703338
-0.00586902
0.000759515
-0.00656016
0.000779403
-0.00709066
0.000779243
-0.00756707
0.000768914
-0.00805608
-0.00858357
0.000752548
7.00543e-05
-0.000714334
0.00022675
-0.00224776
0.000403873
-0.00377621
0.000545068
-0.00503957
0.000629311
-0.00595326
0.000663936
-0.00659478
0.000666365
-0.00709309
0.00065134
-0.00755205
0.000627057
-0.0080318
-0.00855321
0.000596701
6.96562e-05
-0.00078399
0.000217861
-0.00239597
0.000375976
-0.00393433
0.000492735
-0.00515632
0.000553243
-0.00601377
0.0005679
-0.00660944
0.000553998
-0.00707919
0.00052466
-0.00752271
0.000486615
-0.00799376
-0.00850879
0.000442193
6.83933e-05
-0.000852383
0.00020646
-0.00253404
0.000344815
-0.00407268
0.000437779
-0.00524929
0.00047597
-0.00605196
0.000472057
-0.00660552
0.000442756
-0.00704989
0.000399519
-0.00747947
0.000347747
-0.00794198
-0.00845015
0.000289106
6.6281e-05
-0.000918664
0.00019281
-0.00266056
0.000310997
-0.00419087
0.000380965
-0.00531926
0.000398193
-0.00606919
0.000376935
-0.00658427
0.000333029
-0.00700598
0.000276313
-0.00742276
0.000210604
-0.00787628
-0.00837673
0.000137184
6.33546e-05
-0.000982019
0.0001772
-0.00277441
0.000275088
-0.00428876
0.000322956
-0.00536713
0.000320491
-0.00606673
0.000282948
-0.00654672
0.000225109
-0.00694814
0.000155398
-0.00735305
7.62033e-05
-0.00779708
-0.00828431
-1.62098e-05
5.96675e-05
-0.00104169
0.000159945
-0.00287469
0.000237614
-0.00436642
0.00026433
-0.00539384
0.000243344
-0.00604574
0.000190426
-0.00649381
0.00011919
-0.00687691
3.62563e-05
-0.00727011
-5.50822e-05
-0.00770574
-0.00818233
-0.00015706
5.52855e-05
-0.00109697
0.000141335
-0.00296074
0.000199049
-0.00442414
0.000205577
-0.00540037
0.00016714
-0.0060073
9.96396e-05
-0.00642631
1.50645e-05
-0.00679233
-7.97332e-05
-0.00717532
-0.000185137
-0.00760034
-0.00806872
-0.000298756
5.02848e-05
-0.00114726
0.000121652
-0.0030321
0.000159825
-0.00446231
0.000147113
-0.00538766
9.21858e-05
-0.00595238
1.06017e-05
-0.00634472
-8.58041e-05
-0.00669592
-0.000193242
-0.00706788
-0.00031148
-0.0074821
-0.00794195
-0.000438249
4.47508e-05
-0.00119201
0.000101168
-0.00308852
0.000120315
-0.00448146
8.92785e-05
-0.00535662
1.88004e-05
-0.0058819
-7.57251e-05
-0.0062502
-0.000184507
-0.00658714
-0.000304149
-0.00694824
-0.000434808
-0.00735144
-0.00780201
-0.000574748
3.87757e-05
-0.00123078
8.01608e-05
-0.00312991
8.08275e-05
-0.00448212
3.24741e-05
-0.00530827
-5.28049e-05
-0.00579662
-0.000160048
-0.00614295
-0.000280688
-0.0064665
-0.000412194
-0.00681673
-0.000555111
-0.00720852
-0.00764916
-0.000707958
3.2446e-05
-0.00126323
5.89109e-05
-0.00315637
4.16999e-05
-0.00446491
-2.32078e-05
-0.00524336
-0.000122542
-0.00569728
-0.000242047
-0.00602345
-0.000374207
-0.00633434
-0.000517295
-0.00667364
-0.000672259
-0.00705356
-0.0074839
-0.000837522
2.58513e-05
-0.00128908
3.76084e-05
-0.00316813
4.51638e-06
-0.00443182
-7.75222e-05
-0.00516132
-0.000190349
-0.00558446
-0.000321618
-0.00589218
-0.000464983
-0.00619098
-0.000619391
-0.00651923
-0.000786109
-0.00688684
-0.00730694
-0.000963065
1.91659e-05
-0.00130825
1.64734e-05
-0.00316544
-3.51103e-05
-0.00438024
-0.000130626
-0.00506581
-0.000256055
-0.00545903
-0.000398674
-0.00574956
-0.000552948
-0.0060367
-0.000718417
-0.00635377
-0.000896554
-0.0067087
-0.00711881
-0.00108468
1.22947e-05
-0.00132054
-3.42699e-06
-0.00314971
-7.23519e-05
-0.00431131
-0.000182183
-0.00495597
-0.000319596
-0.00532162
-0.000473152
-0.005596
-0.000638069
-0.00587179
-0.000814346
-0.00617749
-0.00100364
-0.00651941
-0.0069193
-0.00120316
4.86433e-06
-0.00132541
-2.65727e-05
-0.00311828
-0.000108725
-0.00422916
-0.000231954
-0.00483274
-0.000380887
-0.00517268
-0.00054502
-0.00543187
-0.000720402
-0.0056964
-0.00090734
-0.00599055
-0.00110733
-0.00631941
-0.00670852
-0.00131812
-2.64038e-06
-0.00132277
-4.77429e-05
-0.00307318
-0.000143997
-0.00413291
-0.000279852
-0.00469689
-0.000439808
-0.00501273
-0.000614212
-0.00525747
-0.000800018
-0.0055106
-0.000997808
-0.00579276
-0.00120733
-0.00610989
-0.0064883
-0.00142755
-9.59886e-06
-0.00131317
-6.80924e-05
-0.00301468
-0.000178001
-0.004023
-0.000325826
-0.00454907
-0.000496272
-0.00484228
-0.000680595
-0.00507314
-0.000876658
-0.00531454
-0.00108557
-0.00558384
-0.00130794
-0.00588752
-0.00626978
-0.00152646
-1.66442e-05
-0.00129652
-8.77525e-05
-0.00294357
-0.000210648
-0.0039001
-0.000369802
-0.00438991
-0.000550212
-0.00466187
-0.000744027
-0.00487933
-0.00094972
-0.00510884
-0.00116754
-0.00536602
-0.0013949
-0.00566016
-0.00599792
-0.00166676
-2.35675e-05
-0.00127295
-0.000106712
-0.00286043
-0.000241876
-0.00376494
-0.000411728
-0.00422006
-0.000601601
-0.004472
-0.00080444
-0.00467649
-0.00101886
-0.00489442
-0.00124454
-0.00514035
-0.0014834
-0.0054213
-0.00572889
-0.00175243
-3.03054e-05
-0.00124265
-0.000124921
-0.00276581
-0.000271635
-0.00361822
-0.000451563
-0.00404013
-0.000650402
-0.00427316
-0.000861838
-0.00446505
-0.00108482
-0.00467144
-0.00131982
-0.00490535
-0.00157022
-0.00517091
-0.00545772
-0.00184139
-3.68187e-05
-0.00120583
-0.000142324
-0.00266031
-0.000299884
-0.00346066
-0.000489271
-0.00385074
-0.000696569
-0.00406586
-0.000916125
-0.0042455
-0.00114722
-0.00444034
-0.00139083
-0.00466174
-0.00164992
-0.00491182
-0.00518127
-0.00192637
-4.30758e-05
-0.00116275
-0.000158872
-0.00254451
-0.000326587
-0.00329295
-0.000524828
-0.0036525
-0.000740087
-0.0038506
-0.000967333
-0.00401825
-0.00120621
-0.00420147
-0.00145796
-0.00440998
-0.00172496
-0.00464482
-0.0048983
-0.00200793
-4.90491e-05
-0.00111371
-0.000174524
-0.00241904
-0.000351711
-0.00311576
-0.000558211
-0.003446
-0.000780936
-0.00362788
-0.00101543
-0.00378376
-0.00126165
-0.00395524
-0.00152098
-0.00415066
-0.00179537
-0.00437042
-0.00460832
-0.00208536
-5.47142e-05
-0.00105899
-0.000189245
-0.00228451
-0.000375233
-0.00292977
-0.000589408
-0.00323183
-0.000819106
-0.00339818
-0.0010604
-0.00354246
-0.00131353
-0.00370211
-0.00157992
-0.00388427
-0.00186134
-0.00408901
-0.00431128
-0.00215838
-6.00498e-05
-0.000998941
-0.000203005
-0.00214155
-0.000397132
-0.00273565
-0.000618407
-0.00301055
-0.000854585
-0.003162
-0.00110223
-0.00329481
-0.00136181
-0.00344254
-0.00163479
-0.00361128
-0.00192286
-0.00380094
-0.00400739
-0.00222675
-6.50372e-05
-0.000933904
-0.000215781
-0.00199081
-0.000417393
-0.00253404
-0.000645201
-0.00278274
-0.000887367
-0.00291984
-0.0011409
-0.00304128
-0.00140646
-0.00317698
-0.00168557
-0.00333217
-0.00197989
-0.00350662
-0.00369699
-0.00229029
-6.96605e-05
-0.000864244
-0.000227554
-0.00183291
-0.000436004
-0.00232559
-0.000669785
-0.00254896
-0.000917445
-0.00267218
-0.00117639
-0.00278233
-0.00144746
-0.00290592
-0.00173222
-0.00304741
-0.00203235
-0.0032065
-0.0033805
-0.00234884
-7.39059e-05
-0.000790338
-0.000238307
-0.00166851
-0.000452959
-0.00211093
-0.000692158
-0.00230976
-0.000944817
-0.00241952
-0.0012087
-0.00251845
-0.00148479
-0.00262983
-0.00177472
-0.00275748
-0.00208017
-0.00290104
-0.00305839
-0.00240228
-7.77618e-05
-0.000712576
-0.000248029
-0.00149825
-0.00046825
-0.00189071
-0.000712319
-0.00206569
-0.000969482
-0.00216236
-0.00123781
-0.00225012
-0.00151843
-0.00234921
-0.00181302
-0.00246289
-0.0021233
-0.00259076
-0.00273119
-0.0024505
-8.12185e-05
-0.000631358
-0.000256709
-0.00132275
-0.000481876
-0.00166555
-0.00073027
-0.0018173
-0.000991442
-0.00190119
-0.00126374
-0.00197782
-0.00154838
-0.00206457
-0.00184711
-0.00216415
-0.00216168
-0.00227618
-0.00239945
-0.00249342
-8.42676e-05
-0.00054709
-0.00026434
-0.00114268
-0.000493835
-0.00143605
-0.000746017
-0.00156512
-0.0010107
-0.0016365
-0.00128647
-0.00170206
-0.00157463
-0.00177642
-0.00187697
-0.0018618
-0.00219528
-0.00195788
-0.00206376
-0.00253098
-8.69022e-05
-0.000460188
-0.000270914
-0.00095867
-0.000504126
-0.00120284
-0.000759563
-0.00130968
-0.00102728
-0.00136878
-0.00130602
-0.00142331
-0.00159719
-0.00148525
-0.00190261
-0.00155639
-0.00222408
-0.00163641
-0.00172471
-0.00256313
-8.9116e-05
-0.000371072
-0.000276426
-0.00077136
-0.000512746
-0.00096652
-0.000770911
-0.00105151
-0.00104117
-0.00109853
-0.00132242
-0.00114205
-0.0016161
-0.00119156
-0.00192406
-0.00124843
-0.00224811
-0.00131236
-0.00138295
-0.00258986
-9.09035e-05
-0.000280168
-0.000280869
-0.000581394
-0.000519692
-0.000727697
-0.000780063
-0.000791145
-0.00105238
-0.000826211
-0.00133567
-0.000858766
-0.00163139
-0.000895847
-0.00194137
-0.000938449
-0.00226742
-0.000986308
-0.00103914
-0.00261123
-9.22594e-05
-0.000187909
-0.000284236
-0.000389418
-0.000524959
-0.000486973
-0.000787013
-0.000529091
-0.00106092
-0.000552304
-0.00134579
-0.000573897
-0.00164309
-0.000598548
-0.00195463
-0.000626907
-0.00228217
-0.000658771
-0.000693903
-0.0026274
-9.31789e-05
-9.47299e-05
-0.000286519
-0.000196077
-0.000528537
-0.000244956
-0.000791748
-0.00026588
-0.00106677
-0.000277286
-0.00135276
-0.000287899
-0.00165122
-0.000300088
-0.00196394
-0.000314191
-0.00229258
-0.000330131
-0.000347705
-0.00263878
-9.36576e-05
-1.07229e-06
-0.00028771
-2.02463e-06
-0.000530411
-2.25507e-06
-0.000794249
-2.04205e-06
-0.00106989
-1.6469e-06
-0.00135655
-1.24104e-06
-0.00165573
-8.98683e-07
-0.00196928
-6.48627e-07
-0.0022989
-5.0902e-07
-5.13092e-07
-0.00264609
-9.36915e-05
9.26192e-05
-0.000287801
0.000192084
-0.000530568
0.000240513
-0.000794487
0.000261876
-0.00107023
0.000274098
-0.00135704
0.000285563
-0.00165644
0.000298502
-0.00197031
0.00031322
-0.00230046
0.000329642
0.000347706
-0.00264868
-9.32783e-05
0.000185898
-0.000286783
0.000385589
-0.000528994
0.000482724
-0.000792438
0.00052532
-0.00106775
0.000549412
-0.00135414
0.000571951
-0.00165312
0.000597484
-0.00196655
0.000626645
-0.00229617
0.000659265
0.000695145
-0.00264361
-9.24169e-05
0.000278314
-0.000284654
0.000577827
-0.000525682
0.000723751
-0.000788088
0.000787727
-0.00106243
0.000823751
-0.00134783
0.000857354
-0.00164578
0.000895432
-0.00195808
0.000938947
-0.00228645
0.000987634
0.00104116
-0.00263247
-9.11083e-05
0.000369423
-0.000281414
0.000768132
-0.000520627
0.000962964
-0.000781435
0.00104853
-0.00105426
0.00109658
-0.00133813
0.00114122
-0.00163448
0.00119178
-0.00194508
0.00124955
-0.00227166
0.00131421
0.00138529
-0.00261579
-8.93553e-05
0.000458778
-0.000277064
0.00095584
-0.000513833
0.00119973
-0.000772482
0.00130718
-0.00104326
0.00136736
-0.00132507
0.00142303
-0.00161928
0.00148599
-0.00192766
0.00155793
-0.00225194
0.00163849
0.00172703
-0.00259368
-8.71625e-05
0.000545941
-0.00027161
0.00114029
-0.000505304
0.00143343
-0.00076124
0.00156312
-0.00102946
0.00163558
-0.00130869
0.00170226
-0.00160025
0.00177755
-0.0019059
0.00186358
-0.00222738
0.00195997
0.00206585
-0.0025662
-8.45361e-05
0.000630477
-0.000265062
0.00132081
-0.000495051
0.00166342
-0.00074772
0.00181579
-0.00101287
0.00190073
-0.00128902
0.00197842
-0.00157744
0.00206596
-0.00187985
0.00216599
-0.00219802
0.00227814
0.00240124
-0.00253341
-8.14838e-05
0.000711961
-0.000257429
0.00149676
-0.000483082
0.00188907
-0.000731935
0.00206464
-0.000993506
0.0021623
-0.00126609
0.002251
-0.00155087
0.00235074
-0.00184956
0.00246468
-0.00216392
0.0025925
0.00273265
-0.00249533
-7.80149e-05
0.000789975
-0.000248722
0.00166747
-0.00046941
0.00210976
-0.000713898
0.00230913
-0.000971395
0.00241979
-0.00123994
0.00251954
-0.0015206
0.0026314
-0.00181507
0.00275915
-0.0021251
0.00290253
0.00305955
-0.002452
-7.41397e-05
0.000864115
-0.000238957
0.00183228
-0.000454044
0.00232484
-0.000693618
0.0025487
-0.00094655
0.00267273
-0.00121057
0.00278356
-0.00148663
0.00290747
-0.0017764
0.00304892
-0.00208161
0.00320774
0.00338139
-0.00240346
-6.98702e-05
0.000933985
-0.000228147
0.00199056
-0.000436996
0.00253369
-0.000671107
0.00278281
-0.000918983
0.0029206
-0.00117801
0.00304259
-0.00144901
0.00317847
-0.0017336
0.00333351
-0.0020335
0.00350764
0.00369768
-0.00234979
-6.52202e-05
0.000999205
-0.00021631
0.00214165
-0.000418281
0.00273567
-0.000646375
0.00301091
-0.000888709
0.00316294
-0.00114228
0.00329616
-0.00140774
0.00344394
-0.00168668
0.00361245
-0.00198081
0.00380177
0.00400794
-0.00229106
-6.02048e-05
0.00105941
-0.000203466
0.00228491
-0.000397912
0.00293011
-0.000619431
0.00323243
-0.000855737
0.00339924
-0.00110339
0.00354381
-0.00136286
0.00370341
-0.00163568
0.00388527
-0.0019236
0.00408968
0.00431174
-0.00222741
-5.48416e-05
0.00111425
-0.000189637
0.00241971
-0.000375904
0.00311638
-0.000590287
0.00344681
-0.000820079
0.00362903
-0.00106136
0.00378509
-0.00131438
0.00395643
-0.00158063
0.00415152
-0.00186193
0.00437098
0.00460876
-0.00215895
-4.915e-05
0.0011634
-0.00017485
0.00254541
-0.000352279
0.00329381
-0.000558953
0.00365348
-0.000781746
0.00385183
-0.00101621
0.00401955
-0.00126233
0.00420255
-0.00152153
0.00441072
-0.00179583
0.00464529
0.0048988
-0.00208587
-4.31523e-05
0.00120655
-0.000159136
0.00266139
-0.000327056
0.00346173
-0.000525442
0.00385187
-0.00074075
0.00406713
-0.000967955
0.00424675
-0.00120673
0.00444133
-0.00145838
0.00466236
-0.00172531
0.00491222
0.00518189
-0.0020084
-3.68732e-05
0.00124343
-0.00014253
0.00276705
-0.000300264
0.00361946
-0.000489771
0.00404138
-0.000697102
0.00427446
-0.000916613
0.00446626
-0.00114762
0.00467234
-0.00139114
0.00490588
-0.00165016
0.00517124
0.00545852
-0.00192679
-3.03405e-05
0.00127377
-0.000125076
0.00286178
-0.000271934
0.00376632
-0.000451961
0.0042214
-0.000650821
0.00447332
-0.00086221
0.00467765
-0.00108511
0.00489524
-0.00132003
0.00514081
-0.00157034
0.00542155
0.00572985
-0.00184168
-2.3586e-05
0.00129735
-0.000106822
0.00294502
-0.000242103
0.0039016
-0.000412037
0.00439134
-0.000601923
0.00466321
-0.000804718
0.00488045
-0.00101907
0.0051096
-0.00124471
0.00536645
-0.00148358
0.00566042
0.00599884
-0.00175256
-1.66486e-05
0.001314
-8.78233e-05
0.00301619
-0.000210813
0.00402459
-0.000370033
0.00455056
-0.000550454
0.00484363
-0.000744227
0.00507422
-0.000949846
0.00531522
-0.00116758
0.00558418
-0.00139489
0.00588773
0.00626996
-0.00166601
-9.59161e-06
0.00132359
-6.81299e-05
0.00307473
-0.000178112
0.00413457
-0.000325992
0.00469844
-0.000496446
0.00501409
-0.000680737
0.00525851
-0.000876743
0.00551122
-0.0010856
0.00579304
-0.001308
0.00611012
0.0064889
-0.00152694
-2.62458e-06
0.00132622
-4.77523e-05
0.00311986
-0.000144062
0.00423088
-0.000279964
0.00483434
-0.00043993
0.00517405
-0.000614315
0.0054329
-0.000800099
0.005697
-0.000997902
0.00599084
-0.00120755
0.00631977
0.00670921
-0.00142786
4.8902e-06
0.00132133
-2.6558e-05
0.00315131
-0.000108751
0.00431308
-0.000232021
0.00495761
-0.000380967
0.005323
-0.000545096
0.00559703
-0.000720485
0.00587239
-0.000907476
0.00617783
-0.00110758
0.00651988
0.00692002
-0.00131839
1.23254e-05
0.001309
-3.3804e-06
0.00316701
-7.23455e-05
0.00438204
-0.000182213
0.00506748
-0.000319643
0.00546043
-0.000473206
0.00575059
-0.000638148
0.00603734
-0.000814489
0.00635418
-0.00100388
0.00670927
0.00711957
-0.00120343
1.91991e-05
0.0012898
1.65203e-05
0.00316969
-3.50778e-05
0.00443364
-0.000130625
0.00516302
-0.000256074
0.00558588
-0.000398709
0.00589322
-0.000553017
0.00619164
-0.000718552
0.00651971
-0.000896762
0.00688748
0.00730771
-0.0010849
2.5887e-05
0.00126392
3.76696e-05
0.00315791
4.5643e-06
0.00446674
-7.74951e-05
0.00524508
-0.000190343
0.00569872
-0.000321635
0.00602452
-0.00046504
0.00633505
-0.000619512
0.00667418
-0.000786282
0.00705425
0.00748463
-0.000963207
3.24844e-05
0.00123143
5.89837e-05
0.00313141
4.17733e-05
0.00448395
-2.31562e-05
0.00531001
-0.000122516
0.00579808
-0.000242048
0.00614405
-0.000374251
0.00646725
-0.000517398
0.00681733
-0.000672396
0.00720925
0.00764985
-0.000837607
3.8816e-05
0.00119262
8.02429e-05
0.00308998
8.09178e-05
0.00448328
3.25458e-05
0.00535838
-5.27589e-05
0.00588339
-0.000160034
0.00625132
-0.000280718
0.00658794
-0.000412277
0.00694889
-0.000555214
0.00735218
0.00780264
-0.000708005
4.47923e-05
0.00114782
0.000101258
0.00303352
0.000120421
0.00446412
8.93695e-05
0.00538944
1.88645e-05
0.00595389
-7.56952e-05
0.00634588
-0.000184521
0.00669676
-0.000304209
0.00706858
-0.000434879
0.00748286
0.00794253
-0.000574768
5.03268e-05
0.0010975
0.000121749
0.0029621
0.000159943
0.00442592
0.000147221
0.00540216
9.22672e-05
0.00600885
1.06471e-05
0.0064275
-8.58026e-05
0.00679321
-0.00019328
0.00717605
-0.000311525
0.0076011
0.00806925
-0.000438251
5.53278e-05
0.00104217
0.000141437
0.00287599
0.000199181
0.00436818
0.000205702
0.00539564
0.000167238
0.00604731
9.97004e-05
0.00649504
1.50817e-05
0.00687783
-7.97519e-05
0.00727089
-0.000185159
0.00770651
0.00818284
-0.000298746
5.97096e-05
0.00098246
0.000160051
0.00277565
0.000237756
0.00429047
0.00026447
0.00536892
0.000243459
0.00606832
0.000190503
0.006548
0.000119224
0.00694911
3.62557e-05
0.00735386
-5.50851e-05
0.00779785
0.0082848
-0.000157044
6.33963e-05
0.000919064
0.00017731
0.00266173
0.000275241
0.00419254
0.000323113
0.00532105
0.000320623
0.00607081
0.000283041
0.00658558
0.000225159
0.00700699
0.000155416
0.0074236
7.62152e-05
0.00787705
0.0083772
-1.61917e-05
6.63219e-05
0.000852742
0.000192923
0.00253513
0.00031116
0.00407431
0.000381136
0.00525107
0.000398342
0.00605361
0.000377045
0.00660688
0.000333095
0.00705094
0.000276347
0.00748035
0.000210629
0.00794277
0.00845063
0.000137208
6.84332e-05
0.000784309
0.000206576
0.00239699
0.000344987
0.00393589
0.000437966
0.00515809
0.000476137
0.00601544
0.000472184
0.00661083
0.000442839
0.00708029
0.000399569
0.00752362
0.000347785
0.00799455
0.00850928
0.000289131
6.96947e-05
0.000714614
0.000217977
0.00224871
0.000376156
0.00377772
0.000492937
0.00504131
0.000553428
0.00595495
0.000568045
0.00659621
0.000554099
0.00709423
0.000524726
0.00755299
0.000486663
0.00803261
0.00855372
0.000442221
7.00912e-05
0.000644523
0.000226867
0.00209193
0.000404062
0.00360052
0.000545285
0.00490009
0.000629515
0.00587072
0.000664101
0.00656163
0.000666484
0.00709185
0.000651422
0.00756805
0.000627117
0.00805692
0.00858411
0.000596732
6.96273e-05
0.000574895
0.000233015
0.00192854
0.000428074
0.00340546
0.00059415
0.00473402
0.000703562
0.0057613
0.000759702
0.00650549
0.000779542
0.00707201
0.000779342
0.00756825
0.000768986
0.00806727
0.00860051
0.000752584
6.83294e-05
0.000506566
0.000236248
0.00176062
0.00044756
0.00319415
0.000638574
0.004543
0.000774586
0.00562529
0.000854054
0.00642602
0.000892735
0.00703333
0.000908156
0.00755283
0.000912054
0.00806338
0.00860291
0.000909656
6.6246e-05
0.00044032
0.000236461
0.00159041
0.000461914
0.0029687
0.000677522
0.00432739
0.000841442
0.00546137
0.000946191
0.00632127
0.00100539
0.00697413
0.00103745
0.00752077
0.00105605
0.00804478
0.00859118
0.00106778
6.34471e-05
0.000376873
0.00023364
0.00142022
0.000470603
0.00273173
0.000709905
0.00408809
0.000902822
0.00526846
0.00103494
0.00618915
0.00111666
0.0068924
0.00116668
0.00747076
0.00120063
0.00801082
0.0085651
0.00122671
6.00228e-05
0.00031685
0.00022787
0.00125237
0.00047321
0.00248639
0.000734619
0.00382668
0.000957259
0.00504582
0.00111889
0.00602752
0.00122547
0.00678583
0.00129513
0.00740109
0.00134535
0.0079606
0.00852426
0.00138619
5.6079e-05
0.000260771
0.000219342
0.00108911