/*--------------------------------*- C++ -*----------------------------------*\
  =========                 |
  \\      /  F ield         | OpenFOAM: The Open Source CFD Toolbox
   \\    /   O peration     | Website:  https://openfoam.org
    \\  /    A nd           | Version:  7
     \\/     M anipulation  |
\*---------------------------------------------------------------------------*/
FoamFile
{
    version     2.0;
    format      ascii;
    class       volVectorField;
    location    "20";
    object      U;
}
// * * * * * * * * * * * * * * * * * * * * * * * * * * * * * * * * * * * * * //

dimensions      [0 1 -1 0 0 0 0];

internalField   nonuniform List<vector> 
6386
(
(-0.00075111 0.000594919 1.85857e-21)
(-0.00382701 0.00130544 7.25172e-21)
(-0.00931016 0.00166641 -2.84642e-21)
(-0.0155159 0.00177078 2.10719e-21)
(-0.0217243 0.00168753 -1.60768e-20)
(-0.0274108 0.00147902 -7.16635e-21)
(-0.0322135 0.00120202 -1.58453e-21)
(-0.0359761 0.000908399 -2.37384e-20)
(-0.0387132 0.000639191 3.15629e-21)
(-0.0404546 0.000431499 1.50093e-20)
(-0.000834207 0.00177784 -1.7004e-20)
(-0.00396722 0.00390097 -3.87237e-21)
(-0.00939136 0.00498019 1.22079e-20)
(-0.0154522 0.00529237 -4.80337e-20)
(-0.021442 0.00504359 -6.25128e-21)
(-0.0268464 0.00442034 9.58418e-21)
(-0.031312 0.00359267 3.59242e-21)
(-0.0346921 0.00271638 6.59193e-20)
(-0.0370101 0.00191539 -4.84787e-20)
(-0.0382484 0.00130433 7.99896e-21)
(-0.00099714 0.00292201 3.27628e-20)
(-0.00423981 0.00640344 -4.97256e-21)
(-0.00954303 0.00816641 2.10314e-20)
(-0.015312 0.00866545 4.92814e-20)
(-0.0208637 0.00824075 1.05221e-19)
(-0.0257037 0.00720048 -7.90035e-20)
(-0.0294948 0.00582645 2.84357e-22)
(-0.0321101 0.0043778 -6.40034e-20)
(-0.0335906 0.00306306 8.31715e-20)
(-0.0338223 0.00208358 -7.96074e-20)
(-0.00123322 0.00400263 3.80726e-21)
(-0.0046286 0.0087531 -3.00635e-21)
(-0.00974297 0.0111431 2.36434e-20)
(-0.0150694 0.0117946 -3.55932e-20)
(-0.0199612 0.011177 -2.80162e-20)
(-0.0239533 0.00971621 1.3903e-19)
(-0.0267329 0.007803 -4.42137e-20)
(-0.0282016 0.00579911 -1.29588e-19)
(-0.0284292 0.00400025 -4.34861e-20)
(-0.0271493 0.00270984 5.89506e-20)
(-0.00153261 0.00499636 6.40245e-21)
(-0.00510967 0.0108935 2.94136e-20)
(-0.0099581 0.0138327 -6.5941e-20)
(-0.0146853 0.0145898 8.11512e-20)
(-0.0186919 0.0137565 5.5528e-20)
(-0.0215516 0.0118707 -2.14941e-19)
(-0.0229826 0.00942858 1.87795e-19)
(-0.0229237 0.00689315 1.15443e-19)
(-0.0214872 0.00465108 4.03548e-20)
(-0.0181893 0.00313266 -1.29497e-20)
(-0.00188253 0.00588187 -4.64606e-20)
(-0.00565166 0.0127727 -2.27641e-20)
(-0.0101448 0.0161638 2.06728e-20)
(-0.014108 0.0169684 -1.80188e-19)
(-0.0169993 0.0158916 9.13465e-20)
(-0.0184397 0.0135762 -2.43189e-20)
(-0.0181849 0.0106187 1.4645e-21)
(-0.0162179 0.00758091 2.20363e-20)
(-0.0127102 0.00494404 -5.07524e-20)
(-0.00689548 0.00332401 -2.84127e-20)
(-0.00226749 0.00664016 1.03203e-19)
(-0.00621625 0.0143442 -1.28579e-20)
(-0.0102492 0.0180729 8.2497e-20)
(-0.013273 0.0188569 2.90156e-20)
(-0.0148126 0.0175054 -2.58936e-20)
(-0.0145439 0.0147568 -2.1896e-20)
(-0.0122662 0.0113011 -1.55045e-20)
(-0.00801166 0.00779384 -4.40328e-20)
(-0.00201748 0.00480631 2.35519e-20)
(0.00677963 0.00325658 1.87146e-19)
(-0.0026696 0.0072549 -1.10366e-19)
(-0.00675859 0.0155677 7.89729e-20)
(-0.0102078 0.0195049 -1.52139e-19)
(-0.0121038 0.0201932 1.84226e-20)
(-0.0120471 0.0185339 4.70867e-20)
(-0.00977555 0.015351 1.76773e-19)
(-0.00513786 0.0114194 -8.4568e-20)
(0.00177508 0.00748185 1.44482e-19)
(0.0106784 0.00420841 -9.98755e-20)
(0.0229425 0.00287939 -1.28561e-19)
(-0.00306878 0.00771258 9.26811e-20)
(-0.00722783 0.0164099 -4.8494e-20)
(-0.00994782 0.020415 -1.26778e-19)
(-0.010512 0.0209273 1.18998e-20)
(-0.0086042 0.0189279 -2.33906e-19)
(-0.00403048 0.0153143 -1.41081e-20)
(0.00330628 0.0109361 1.04561e-20)
(0.013251 0.00661734 -7.24425e-20)
(0.0254625 0.00313814 1.72235e-19)
(0.0416999 0.00216984 6.86928e-20)
(-0.00344305 0.00800255 -7.30519e-20)
(-0.00756764 0.0168446 -1.24206e-19)
(-0.00938782 0.0207689 3.27321e-19)
(-0.00839802 0.0210231 1.24962e-19)
(-0.00437193 0.0186546 4.17095e-20)
(0.00281017 0.0146215 9.4545e-20)
(0.0131873 0.00983531 -1.08578e-19)
(0.0265366 0.00519047 1.7752e-20)
(0.042448 0.0015771 -2.81436e-19)
(0.0631487 0.00115495 2.64942e-20)
(-0.0037687 0.008117 1.98042e-20)
(-0.00771666 0.0168529 5.99694e-20)
(-0.00843859 0.0205441 -4.33005e-19)
(-0.00565177 0.0204593 -6.26589e-20)
(0.000774191 0.0176996 6.42814e-20)
(0.0108794 0.0132687 -3.08719e-19)
(0.0246407 0.00812581 -1.04428e-20)
(0.041765 0.00321978 -7.28052e-21)
(0.0617627 -0.000456841 -1.05471e-19)
(0.0874127 -0.000127167 1.51881e-20)
(-0.00402056 0.00805084 -2.12822e-20)
(-0.00760931 0.0164244 1.10784e-19)
(-0.00700371 0.0197292 2.89059e-19)
(-0.002154 0.0192297 -1.46107e-19)
(0.00696995 0.0160667 1.12339e-20)
(0.0203232 0.0112749 -1.20486e-19)
(0.037816 0.00584411 -3.08844e-20)
(0.0590817 0.000756725 2.92369e-19)
(0.0835429 -0.00290987 2.39058e-19)
(0.114613 -0.00162738 -3.02249e-20)
(-0.00417187 0.00780196 2.09842e-20)
(-0.00717634 0.0155556 4.86534e-20)
(-0.00498129 0.0183247 -2.629e-19)
(0.00222234 0.0173439 1.06423e-19)
(0.0143606 0.0137793 1.16672e-19)
(0.0312988 0.00868255 4.14121e-19)
(0.0528749 0.00305595 2.28633e-19)
(0.0786447 -0.00211121 -1.14673e-19)
(0.107932 -0.00568832 -3.01953e-20)
(0.144851 -0.00324844 -1.52183e-19)
(-0.00419497 0.00737081 1.55701e-19)
(-0.00634547 0.0142507 -2.4985e-19)
(-0.00226515 0.0163436 3.92948e-19)
(0.0076097 0.0148266 -1.41811e-19)
(0.0230982 0.0108793 -1.46539e-19)
(0.0439716 0.00555658 -4.67085e-19)
(0.0699888 -0.000144074 -3.11434e-19)
(0.100622 -0.00525877 1.75081e-19)
(0.135095 -0.00864929 2.61475e-19)
(0.178308 -0.00483132 2.67166e-19)
(-0.00406118 0.0067604 -1.3881e-19)
(-0.00504266 0.0125219 -6.52026e-20)
(0.00125323 0.0138101 9.55157e-21)
(0.014143 0.0117175 1.77046e-20)
(0.0333377 0.00742565 3.81401e-19)
(0.058511 0.00198222 1.44296e-20)
(0.0893344 -0.00363539 3.05204e-19)
(0.125188 -0.00852389 -2.77859e-19)
(0.165191 -0.0116037 -5.4194e-19)
(0.215071 -0.00623501 -2.57909e-19)
(-0.00319335 0.0103893 3.95657e-19)
(0.0056821 0.0107604 6.46483e-21)
(0.0219558 0.00807015 -2.25884e-19)
(0.0452318 0.00349247 1.44234e-19)
(0.0750842 -0.00193942 -2.47812e-19)
(0.111088 -0.00727757 -5.26158e-20)
(0.15252 -0.0117123 1.29399e-19)
(0.198394 -0.014303 1.66039e-19)
(0.255223 -0.00723964 1.29182e-19)
(-0.000724031 0.00788121 -1.98618e-19)
(0.0111265 0.00724234 -1.88185e-19)
(0.0311759 0.00395146 -2.73575e-20)
(0.0589245 -0.000833828 1.38665e-19)
(0.0938477 -0.00609729 4.70602e-19)
(0.135416 -0.0109211 3.91459e-19)
(0.182791 -0.01461 5.92496e-20)
(0.234886 -0.0164279 4.8549e-19)
(0.29881 -0.0075311 2.13749e-19)
(0.00243578 0.00503464 3.66282e-19)
(0.0176846 0.00331552 9.38587e-20)
(0.0419194 -0.000559368 3.89596e-19)
(0.0745424 -0.00545732 -1.44864e-19)
(0.114936 -0.0103785 -4.6586e-19)
(0.162462 -0.0144255 -2.3972e-19)
(0.216159 -0.0170023 -2.75721e-19)
(0.274832 -0.0175274 -5.91362e-19)
(0.345707 -0.00649427 -6.53557e-20)
(0.0254443 -0.00094815 -2.59071e-19)
(0.0542846 -0.00537057 -1.72961e-19)
(0.0921858 -0.0102747 -6.90532e-20)
(0.13845 -0.0146782 -2.05528e-20)
(0.192342 -0.0176897 7.42615e-20)
(0.252811 -0.0187259 1.19909e-19)
(0.318502 -0.0170199 2.07611e-19)
(0.395529 -0.00323593 -3.35536e-19)
(0.0344791 -0.00546355 1.35606e-19)
(0.0683459 -0.0103766 2.28242e-19)
(0.111915 -0.0151745 -1.52206e-19)
(0.164427 -0.018906 3.79254e-19)
(0.225099 -0.0206881 -1.33453e-19)
(0.292971 -0.0198077 -6.70317e-20)
(0.366793 -0.0147996 9.87515e-21)
(0.449315 0.00146777 9.89156e-20)
(0.084148 -0.0154546 -1.70645e-19)
(0.133739 -0.0200294 1.41425e-19)
(0.192808 -0.0229708 -1.26052e-19)
(0.260574 -0.0234582 5.45897e-19)
(0.336444 -0.0206321 -1.44893e-19)
(0.420538 -0.0124133 3.07979e-19)
(0.514993 0.00261194 -1.64328e-19)
(0.157615 -0.0246813 -3.0686e-19)
(0.223431 -0.0267313 -4.16313e-19)
(0.298336 -0.0259604 -4.17795e-19)
(0.3819 -0.0217052 5.69728e-20)
(0.474889 -0.012673 2.213e-19)
(0.576632 -0.00389826 -7.16154e-20)
(0.183464 -0.0289319 5.82964e-19)
(0.256089 -0.0299576 4.47645e-19)
(0.337933 -0.0278963 8.83538e-20)
(0.428417 -0.0224377 -4.97729e-21)
(0.528049 -0.0131095 -5.47331e-20)
(0.633265 -0.00821029 8.7046e-19)
(0.290583 -0.0323654 -5.17467e-19)
(0.379027 -0.0288598 2.20996e-19)
(0.475572 -0.0220739 1.0286e-19)
(0.580031 -0.0120661 -7.35211e-19)
(0.686954 -0.00840992 -1.3108e-19)
(0.421355 -0.0284758 -2.29462e-19)
(0.523153 -0.0200855 2.51864e-19)
(0.631128 -0.00890308 1.73214e-20)
(0.738875 -0.00482399 -1.40037e-19)
(0.570966 -0.016127 8.8779e-20)
(0.681425 -0.00332906 7.75157e-20)
(0.789265 0.00224745 -7.39058e-20)
(0.73081 0.00476759 1.26949e-19)
(0.838016 0.0124954 3.82919e-19)
(0.884881 0.0255623 -1.48889e-19)
(0.779411 -0.0154151 -8.8948e-20)
(0.885262 -0.0256242 -5.95639e-19)
(0.731141 -0.00480671 -9.15333e-20)
(0.838376 -0.0125442 5.937e-19)
(0.571227 0.0161098 -4.32057e-19)
(0.681729 0.00329972 3.57257e-19)
(0.789602 -0.00228461 -1.51161e-19)
(0.421544 0.0284724 -6.40609e-20)
(0.523388 0.0200746 7.52854e-20)
(0.631407 0.00888186 -5.84183e-20)
(0.739189 0.00479658 -3.54228e-20)
(0.290706 0.0323683 -1.58608e-19)
(0.379192 0.0288592 2.35564e-19)
(0.475781 0.0220676 3.0087e-19)
(0.580284 0.0120512 -6.61028e-19)
(0.687243 0.00838995 -2.59505e-19)
(0.183534 0.0289351 -1.54258e-19)
(0.256193 0.0299606 5.99225e-19)
(0.338077 0.0278972 -7.11465e-20)
(0.428601 0.0224344 5.85371e-21)
(0.528275 0.0130992 2.69476e-19)
(0.633529 0.00819499 4.42544e-19)
(0.157672 0.024683 -4.47974e-19)
(0.223518 0.0267336 -2.56955e-19)
(0.298459 0.0259618 -4.82012e-19)
(0.382061 0.0217037 -1.29967e-19)
(0.47509 0.0126654 2.79791e-19)
(0.57687 0.00388431 -5.71295e-20)
(0.0841721 0.0154527 6.25146e-20)
(0.133785 0.0200293 -4.07988e-20)
(0.192881 0.0229719 6.80837e-20)
(0.260679 0.0234593 6.07868e-19)
(0.336584 0.0206313 -7.59469e-20)
(0.420715 0.0124072 -1.13024e-20)
(0.515205 -0.00262774 -1.49985e-19)
(0.0344836 0.00545815 2.24639e-19)
(0.0683633 0.0103724 -8.88673e-20)
(0.111951 0.0151722 6.58175e-20)
(0.164486 0.0189053 3.90184e-19)
(0.225187 0.020688 -3.79919e-19)
(0.29309 0.0198067 2.80366e-19)
(0.366945 0.0147947 -2.94458e-19)
(0.449499 -0.0014843 1.13365e-19)
(0.0254456 0.000940852 -3.81314e-19)
(0.0542964 0.00536415 -1.86928e-19)
(0.0922134 0.01027 1.41824e-20)
(0.138498 0.0146753 -3.96312e-20)
(0.192415 0.017688 1.70175e-19)
(0.252912 0.018724 -5.76131e-20)
(0.318633 0.0170155 2.67241e-19)
(0.395691 0.00322081 -3.24895e-19)
(0.002431 -0.00504238 -1.1788e-19)
(0.0176834 -0.00332463 4.12177e-19)
(0.0419266 0.000550678 1.84151e-19)
(0.0745628 0.00545013 6.04877e-20)
(0.114974 0.0103732 -5.00385e-19)
(0.162522 0.0144217 -3.87971e-19)
(0.216244 0.0169989 -2.65297e-19)
(0.274943 0.0175224 -5.26169e-19)
(0.345847 0.00648031 -2.53307e-19)
(-0.000729516 -0.00789004 -2.9088e-19)
(0.0111232 -0.00725318 -9.53863e-20)
(0.0311793 -0.00396238 4.2913e-20)
(0.0589388 0.000824086 -3.6928e-20)
(0.0938771 0.00608931 6.24828e-19)
(0.135464 0.0109148 3.25159e-19)
(0.18286 0.0146044 1.71388e-19)
(0.234979 0.0164214 3.22965e-19)
(0.29893 0.00751717 1.00815e-19)
(-0.00374443 -0.00598119 -5.26051e-20)
(-0.00319929 -0.0103991 3.72472e-19)
(0.00567735 -0.0107729 -2.48162e-20)
(0.0219562 -0.00808323 -1.55392e-19)
(0.0452412 -0.00350477 7.81788e-20)
(0.0751064 0.00192866 -1.00842e-19)
(0.111126 0.00726844 -2.6383e-19)
(0.152577 0.0117042 1.05875e-19)
(0.198472 0.0142942 3.26753e-19)
(0.255325 0.00722481 1.27274e-20)
(-0.0040643 -0.00676522 -6.6681e-20)
(-0.00504884 -0.0125326 -1.26855e-19)
(0.0012474 -0.013824 -1.31588e-19)
(0.014141 -0.0117326 7.82725e-20)
(0.0333431 -0.00744047 2.78992e-19)
(0.0585271 -0.00199579 2.94399e-19)
(0.0893643 0.00362331 1.04487e-19)
(0.125234 0.00851282 -3.52055e-19)
(0.165256 0.0115923 -3.00502e-19)
(0.215156 0.00621863 -3.17982e-19)
(-0.00419797 -0.00737584 1.89483e-19)
(-0.0063517 -0.0142622 -2.59941e-19)
(-0.00227167 -0.0163589 1.77781e-19)
(0.00760593 -0.0148437 1.62429e-19)
(0.0231004 -0.0108966 -3.74418e-19)
(0.0439827 -0.00557298 -3.3389e-19)
(0.0700115 0.000128954 -4.10114e-19)
(0.100659 0.00524462 1.5601e-19)
(0.135148 0.008635 1.6416e-19)
(0.178378 0.00481314 4.51851e-19)
(-0.00417471 -0.00780717 -1.35114e-19)
(-0.00718249 -0.0155678 6.29792e-20)
(-0.00498822 -0.0183413 -2.03036e-19)
(0.00221732 -0.0173628 1.6906e-19)
(0.0143603 -0.0137989 2.59895e-20)
(0.0313058 -0.0087017 5.13577e-19)
(0.0528918 -0.00307412 2.46191e-19)
(0.0786737 0.0020939 -1.3264e-19)
(0.107975 0.00567102 -5.50784e-20)
(0.144909 0.00322881 6.2214e-21)
(-0.00402321 -0.00805621 -5.87014e-20)
(-0.00761526 -0.0164371 1.58926e-19)
(-0.00701077 -0.0197469 2.09464e-19)
(-0.00215985 -0.0192503 -2.421e-20)
(0.00696774 -0.0160885 -2.21009e-19)
(0.0203271 -0.0112967 -2.97491e-21)
(0.0378282 -0.00586526 7.51333e-20)
(0.0591042 -0.000777237 1.53299e-19)
(0.0835772 0.00288924 2.91954e-19)
(0.114662 0.00160405 -8.16967e-21)
(-0.00377116 -0.00812251 -2.07485e-20)
(-0.00772231 -0.0168663 1.04487e-20)
(-0.00844558 -0.0205629 -3.22012e-19)
(-0.00565807 -0.0204815 -1.30519e-19)
(0.000770686 -0.0177234 4.97896e-20)
(0.0108808 -0.013293 -3.26975e-19)
(0.0246491 -0.00814983 1.63307e-19)
(0.041782 -0.00324342 -2.22488e-19)
(0.0617897 0.000432997 -1.01539e-19)
(0.0874517 0.000100896 1.59483e-19)
(-0.00344529 -0.00800817 -5.43479e-20)
(-0.00757291 -0.0168584 -9.56362e-20)
(-0.00939456 -0.0207887 3.36924e-19)
(-0.00840448 -0.0210467 5.1983e-20)
(-0.00437627 -0.0186804 2.37642e-19)
(0.00280979 -0.0146481 -2.77071e-20)
(0.0131926 -0.00986203 -5.26321e-20)
(0.0265492 -0.00521706 -6.80896e-20)
(0.042469 -0.00160397 -2.70949e-19)
(0.0631797 -0.00118355 -6.1632e-20)
(-0.0030708 -0.0077183 6.94284e-20)
(-0.00723267 -0.0164241 -1.05755e-19)
(-0.00995416 -0.0204355 -1.63788e-20)
(-0.0105184 -0.0209521 -3.29977e-20)
(-0.00860898 -0.0189553 -2.23903e-19)
(-0.0040321 -0.015343 -3.70679e-22)
(0.00330934 -0.0109653 -6.77698e-20)
(0.01326 -0.00664663 3.7056e-20)
(0.0254785 -0.00316781 1.6728e-19)
(0.0417243 -0.00220087 4.94357e-20)
(-0.00267139 -0.00726071 -1.25893e-19)
(-0.00676295 -0.0155823 1.13273e-19)
(-0.0102136 -0.0195262 -1.47579e-19)
(-0.0121098 -0.0202192 7.51475e-21)
(-0.012052 -0.0185629 9.45742e-21)
(-0.00977795 -0.0153816 2.12887e-19)
(-0.00513648 -0.0114508 -4.43949e-20)
(0.00178135 -0.00751356 -1.18671e-20)
(0.0106905 -0.00424054 6.09233e-20)
(0.022961 -0.00291237 -2.82448e-19)
(-0.00226905 -0.00664604 1.33692e-19)
(-0.00622009 -0.0143591 -8.1634e-20)
(-0.0102544 -0.0180948 8.71547e-20)
(-0.0132785 -0.0188839 5.05678e-20)
(-0.0148173 -0.0175357 2.10343e-20)
(-0.0145467 -0.0147891 -5.12731e-20)
(-0.012266 -0.0113345 -7.06925e-20)
(-0.00800749 -0.00782766 -7.83855e-20)
(-0.00200855 -0.00484051 1.44078e-19)
(0.00679393 -0.00329148 1.04869e-19)
(-0.00188385 -0.00588781 -3.46695e-20)
(-0.00565496 -0.0127879 1.98966e-20)
(-0.0101493 -0.0161863 1.1858e-20)
(-0.0141128 -0.0169962 -1.62676e-19)
(-0.0170036 -0.0159231 3.41032e-20)
(-0.0184425 -0.01361 3.45753e-20)
(-0.0181854 -0.0106537 -7.4583e-20)
(-0.0162152 -0.00761656 4.07293e-20)
(-0.0127037 -0.00498003 -3.29306e-20)
(-0.00688461 -0.00336065 -6.87607e-20)
(-0.0015337 -0.00500236 -2.778e-20)
(-0.00511239 -0.0109089 1.16659e-20)
(-0.00996187 -0.0138556 -2.6084e-20)
(-0.0146895 -0.0146183 8.84138e-20)
(-0.0186957 -0.0137889 -1.98826e-20)
(-0.0215542 -0.0119057 -1.47536e-19)
(-0.0229834 -0.00946501 9.6605e-20)
(-0.0229221 -0.00693036 1.70696e-19)
(-0.0214826 -0.00468869 5.62956e-20)
(-0.0181812 -0.0031707 -1.70787e-21)
(-0.00123407 -0.00400867 -8.01538e-21)
(-0.00463073 -0.00876872 3.2e-20)
(-0.00974595 -0.0111663 -6.6667e-20)
(-0.0150727 -0.0118236 2.60036e-20)
(-0.0199642 -0.0112102 -4.51014e-20)
(-0.0239556 -0.00975211 1.1912e-19)
(-0.0267338 -0.00784055 -6.56327e-20)
(-0.0282007 -0.00583757 -6.11824e-20)
(-0.0284261 -0.00403917 -9.97875e-20)
(-0.0271436 -0.0027491 9.35511e-20)
(-0.000997747 -0.00292809 3.03963e-20)
(-0.00424134 -0.00641919 -1.63711e-20)
(-0.00954518 -0.00818992 3.0129e-20)
(-0.0153144 -0.0086949 4.29211e-20)
(-0.020866 -0.00827449 1.00667e-19)
(-0.0257054 -0.0072371 -7.85168e-20)
(-0.0294956 -0.00586485 2.1246e-20)
(-0.0321096 -0.0044172 -6.90996e-20)
(-0.0335886 -0.00310297 6.67437e-20)
(-0.0338185 -0.00212379 -6.12039e-20)
(-0.000834572 -0.00178393 -9.97874e-21)
(-0.00396814 -0.0039168 3.82585e-21)
(-0.00939266 -0.00500388 4.67369e-21)
(-0.0154536 -0.00532209 -3.59165e-20)
(-0.0214434 -0.00507771 -2.02748e-20)
(-0.0268475 -0.00445744 2.19459e-20)
(-0.0313125 -0.00363164 3.59682e-21)
(-0.0346919 -0.0027564 7.25696e-20)
(-0.037009 -0.00195596 -5.71048e-20)
(-0.0382463 -0.00134518 -1.87919e-20)
(-0.000751232 -0.000601022 -1.68362e-21)
(-0.00382732 -0.00132132 5.95035e-21)
(-0.00931059 -0.00169018 -3.9299e-21)
(-0.0155164 -0.00180064 3.19931e-21)
(-0.0217248 -0.00172184 -1.59572e-20)
(-0.0274111 -0.00151636 -4.00765e-21)
(-0.0322136 -0.00124127 -5.39565e-21)
(-0.035976 -0.000948737 -1.77021e-20)
(-0.0387128 -0.000680089 -1.31298e-21)
(-0.0404539 -0.000472675 1.97663e-20)
(-0.0417819 0.000400082 -8.6487e-22)
(-0.0428387 0.00021113 3.57768e-21)
(-0.0431894 -6.01244e-05 6.0372e-23)
(-0.0426324 -0.000372929 -3.51777e-21)
(-0.0410435 -0.000705518 4.02734e-21)
(-0.0383009 -0.00103889 -1.91729e-22)
(-0.0343487 -0.00135838 -6.66509e-22)
(-0.0291738 -0.00165372 -6.74888e-22)
(-0.0227949 -0.00191825 5.73855e-22)
(-0.0152557 -0.00214839 1.17207e-21)
(-0.00661753 -0.00234299 -1.25578e-21)
(0.00304736 -0.00250273 -3.29103e-22)
(0.013661 -0.00262948 3.28853e-22)
(0.0251434 -0.00272586 1.79011e-22)
(0.0374158 -0.00279484 -2.51873e-22)
(0.0504017 -0.00283946 3.59369e-24)
(0.0640286 -0.0028627 -8.23095e-22)
(0.0782281 -0.00286735 3.86613e-22)
(0.0929361 -0.00285596 3.08048e-22)
(0.108093 -0.00283081 -4.64938e-22)
(0.123643 -0.00279396 6.77968e-22)
(0.139534 -0.00274721 -5.55758e-23)
(0.155718 -0.00269215 -8.44371e-22)
(0.172149 -0.00263019 5.13068e-22)
(0.188785 -0.00256257 2.2547e-22)
(0.205587 -0.00249037 -3.90813e-22)
(0.222517 -0.00241457 1.2132e-22)
(0.239542 -0.002336 1.92899e-22)
(0.256625 -0.00225547 3.60043e-24)
(0.273744 -0.00217359 -1.1861e-22)
(0.290853 -0.00209114 1.23093e-22)
(0.307963 -0.0020083 1.93542e-22)
(0.324971 -0.00192642 -1.10672e-23)
(0.342013 -0.00184414 -1.08541e-22)
(0.35875 -0.00176575 3.0897e-23)
(0.37579 -0.00168363 4.21659e-23)
(0.391908 -0.00161425 -3.15911e-23)
(0.409375 -0.001526 2.89541e-23)
(0.423916 -0.0014806 -4.11366e-23)
(0.443333 -0.0013612 -1.75423e-24)
(0.453471 -0.00138272 -1.42478e-23)
(0.479482 -0.00116332 1.38224e-23)
(-0.0393305 0.00121599 -2.60244e-20)
(-0.0403206 0.000645725 1.10987e-20)
(-0.0405597 -0.000168244 2.54829e-21)
(-0.0398807 -0.00110351 9.35661e-21)
(-0.0381749 -0.00209829 -5.5438e-21)
(-0.0353248 -0.00309523 6.88805e-22)
(-0.0312791 -0.00405034 -5.44446e-21)
(-0.0260281 -0.0049331 -1.36974e-21)
(-0.0195923 -0.00572371 -1.09707e-21)
(-0.0120162 -0.00641161 -1.35083e-21)
(-0.00336055 -0.0069935 1.0669e-20)
(0.00630351 -0.00747144 -1.33565e-20)
(0.0168997 -0.00785111 2.487e-21)
(0.0283502 -0.00814028 8.03466e-21)
(0.0405781 -0.0083478 -6.63406e-21)
(0.0535091 -0.00848278 1.57841e-22)
(0.0670723 -0.00855405 5.00621e-21)
(0.0812012 -0.00856991 8.37427e-22)
(0.095833 -0.00853797 -3.57024e-21)
(0.110909 -0.00846506 -4.45566e-22)
(0.126376 -0.00835727 2.1882e-21)
(0.142181 -0.00822 -3.57801e-22)
(0.158278 -0.00805802 3.24051e-22)
(0.174621 -0.0078755 2.39155e-23)
(0.191169 -0.00767613 -9.29292e-22)
(0.207882 -0.00746317 4.53701e-23)
(0.224725 -0.00723947 3.27314e-23)
(0.241663 -0.00700754 5.26304e-22)
(0.25866 -0.0067697 -1.57942e-22)
(0.275695 -0.00652773 4.26024e-22)
(0.292722 -0.00628393 6.32796e-23)
(0.30975 -0.00603869 -3.87752e-23)
(0.326679 -0.00579604 2.31596e-23)
(0.343643 -0.00555166 1.91865e-22)
(0.360305 -0.00531843 -1.40604e-22)
(0.377271 -0.00507321 1.82728e-23)
(0.393318 -0.00486543 -4.94033e-23)
(0.410714 -0.00459984 -6.06822e-23)
(0.425192 -0.00446198 2.73574e-23)
(0.444537 -0.00410016 1.22037e-24)
(0.454626 -0.00416087 2.92072e-23)
(0.480552 -0.00349531 -1.45579e-23)
(-0.0344178 0.00195646 1.84347e-20)
(-0.035276 0.000994787 -3.28373e-20)
(-0.0352929 -0.00035842 2.05041e-20)
(-0.0343716 -0.00190689 4.31907e-21)
(-0.0324342 -0.00355291 3.22821e-21)
(-0.0293715 -0.0052007 -1.47582e-20)
(-0.0251411 -0.00677757 8.69551e-21)
(-0.0197405 -0.00823365 -1.19885e-20)
(-0.0131935 -0.00953671 2.8208e-20)
(-0.00554603 -0.0106698 -1.85828e-20)
(0.00314218 -0.011628 9.12182e-21)
(0.0128026 -0.0124148 -2.38709e-21)
(0.0233623 -0.0130398 1.80009e-21)
(0.0347476 -0.013516 -2.19309e-21)
(0.0468855 -0.0138577 -6.4588e-21)
(0.0597058 -0.0140801 3.21272e-21)
(0.0731414 -0.0141975 -4.18731e-21)
(0.0871289 -0.0142237 2.15372e-21)
(0.101609 -0.014171 -9.80068e-22)
(0.116525 -0.0140508 -7.4942e-22)
(0.131824 -0.0138729 2.1014e-21)
(0.147458 -0.0136464 3.31146e-22)
(0.163381 -0.013379 -8.75668e-23)
(0.179549 -0.0130776 -1.13247e-21)
(0.195921 -0.0127483 2.34233e-21)
(0.212459 -0.0123964 -5.45254e-22)
(0.229127 -0.0120268 -3.05413e-22)
(0.245892 -0.0116434 5.26052e-22)
(0.262719 -0.0112502 -9.01145e-22)
(0.279586 -0.0108501 -5.11787e-22)
(0.296447 -0.0104468 8.00391e-22)
(0.313314 -0.010041 -7.96229e-22)
(0.330085 -0.00963931 2.06405e-23)
(0.346895 -0.00923454 1.0456e-22)
(0.363407 -0.00884814 2.75923e-22)
(0.380226 -0.00844137 8.4369e-23)
(0.396132 -0.00809677 1.17522e-22)
(0.413386 -0.00765524 8.63417e-23)
(0.427738 -0.00742643 -5.74229e-24)
(0.44694 -0.00682365 -1.25696e-23)
(0.456933 -0.00692459 1.80452e-23)
(0.48269 -0.00581733 -1.47645e-22)
(-0.0270252 0.0025769 1.23342e-21)
(-0.0276899 0.00120477 -1.24372e-20)
(-0.0273761 -0.000682326 2.309e-20)
(-0.0260959 -0.00282903 -6.04131e-21)
(-0.023817 -0.00510833 -1.19653e-20)
(-0.0204413 -0.00738585 2.60566e-20)
(-0.0159407 -0.00956146 -1.18265e-20)
(-0.0103225 -0.0115674 -2.13495e-20)
(-0.00361607 -0.0133604 5.87615e-21)
(0.00413168 -0.014918 1.16282e-21)
(0.0128625 -0.0162342 -3.96235e-21)
(0.0225119 -0.0173147 1.34973e-20)
(0.0330124 -0.0181728 3.22806e-21)
(0.0442961 -0.0188264 -4.70385e-21)
(0.0562964 -0.0192954 -1.50172e-22)
(0.0689488 -0.0196004 -5.61254e-21)
(0.0821918 -0.0197611 1.12202e-20)
(0.0959667 -0.0197962 -5.18425e-21)
(0.110218 -0.0197227 -5.51498e-21)
(0.124894 -0.0195559 3.66908e-21)
(0.139944 -0.0193095 2.10737e-21)
(0.155323 -0.0189958 -5.62399e-22)
(0.170986 -0.0186254 2.43912e-21)
(0.186892 -0.018208 -2.27784e-21)
(0.203002 -0.0177518 -2.93262e-22)
(0.219278 -0.0172642 -7.62958e-22)
(0.235686 -0.0167517 3.1422e-21)
(0.252194 -0.0162202 -1.91395e-21)
(0.268768 -0.0156748 -8.07103e-22)
(0.285385 -0.0151197 1.02684e-21)
(0.302002 -0.01456 -6.01658e-22)
(0.318628 -0.0139966 3.15599e-22)
(0.335164 -0.0134389 -1.41824e-22)
(0.351745 -0.0128766 7.55775e-22)
(0.368034 -0.0123398 -6.46355e-22)
(0.384633 -0.011774 9.82006e-23)
(0.400331 -0.0112952 -2.87594e-22)
(0.417374 -0.0106801 -1.25694e-22)
(0.431538 -0.0103628 -1.07954e-22)
(0.450527 -0.00952145 -8.4813e-24)
(0.460376 -0.00966434 3.33593e-23)
(0.485882 -0.00812276 1.30139e-22)
(-0.0171237 0.00303367 8.21551e-21)
(-0.0175398 0.00122646 2.98184e-20)
(-0.016789 -0.00118643 -1.18105e-20)
(-0.0150391 -0.00391195 -4.63792e-20)
(-0.0123157 -0.00679986 5.51042e-20)
(-0.00853438 -0.00967773 -3.27233e-21)
(-0.00368608 -0.01242 -1.6333e-20)
(0.00220861 -0.0149432 1.43164e-20)
(0.00911424 -0.0171948 -1.64335e-20)
(0.0169826 -0.0191484 1.38163e-20)
(0.0257584 -0.020798 -4.18368e-22)
(0.0353828 -0.0221514 -1.06221e-20)
(0.0457956 -0.0232259 -3.37826e-21)
(0.0569371 -0.0240442 4.46987e-21)
(0.0687488 -0.0246312 1.24979e-20)
(0.0811738 -0.0250125 -2.27831e-21)
(0.0941576 -0.0252128 -1.4223e-20)
(0.107648 -0.0252551 9.18239e-21)
(0.121595 -0.0251606 -8.57372e-21)
(0.135951 -0.0249485 2.76443e-21)
(0.15067 -0.0246359 -2.0534e-21)
(0.165711 -0.024238 2.78147e-21)
(0.18103 -0.0237683 3.2088e-21)
(0.19659 -0.0232387 2.28285e-21)
(0.212354 -0.0226598 -4.51311e-21)
(0.228285 -0.0220409 -3.29458e-22)
(0.24435 -0.0213902 1.52901e-21)
(0.260519 -0.0207149 1.06534e-21)
(0.276758 -0.0200219 -2.58778e-21)
(0.293047 -0.0193161 -6.68555e-22)
(0.30934 -0.0186044 -3.77558e-22)
(0.325651 -0.0178876 4.16276e-22)
(0.341877 -0.0171779 -1.60109e-22)
(0.358156 -0.0164619 -6.14364e-22)
(0.374151 -0.0157785 -2.30618e-22)
(0.390462 -0.0150573 9.23193e-23)
(0.405886 -0.0144479 -1.59332e-22)
(0.42265 -0.0136624 8.94012e-23)
(0.436569 -0.0132601 -9.48631e-25)
(0.455276 -0.0121836 2.96572e-23)
(0.464938 -0.0123708 -1.41697e-22)
(0.490112 -0.010405 7.91733e-23)
(-0.0046746 0.00326522 8.66591e-21)
(-0.00478965 0.00102502 -9.04959e-20)
(-0.00350183 -0.00190877 3.87744e-20)
(-0.00117973 -0.00519255 -1.58878e-21)
(0.00208197 -0.00865722 3.41518e-20)
(0.00635119 -0.0120981 -1.51318e-20)
(0.011613 -0.0153663 1.12099e-21)
(0.0178311 -0.0183653 -2.8254e-20)
(0.0249633 -0.0210359 3.23133e-20)
(0.0329612 -0.0233498 -1.70235e-21)
(0.041774 -0.0253016 -1.16367e-20)
(0.0513505 -0.0269023 -5.90568e-21)
(0.06164 -0.028173 7.11492e-21)
(0.0725929 -0.0291405 4.0919e-21)
(0.0841606 -0.0298345 1.19625e-20)
(0.0962957 -0.0302847 -1.82712e-20)
(0.108952 -0.0305202 -2.37116e-21)
(0.122085 -0.030568 1.95082e-21)
(0.135652 -0.0304529 -1.9963e-21)
(0.149609 -0.0301974 4.29576e-21)
(0.163918 -0.0298217 3.18329e-21)
(0.178538 -0.0293436 2.29089e-22)
(0.193433 -0.0287792 -8.18767e-21)
(0.208565 -0.0281427 1.36414e-21)
(0.2239 -0.0274465 4.72555e-21)
(0.239405 -0.0267018 -2.4894e-21)
(0.255048 -0.0259186 -1.501e-21)
(0.270799 -0.0251053 3.16577e-21)
(0.286626 -0.0242703 -2.63746e-21)
(0.30251 -0.0234195 3.11258e-21)
(0.318406 -0.0225612 1.16574e-21)
(0.334327 -0.0216964 -8.69295e-22)
(0.350173 -0.0208399 -1.87897e-23)
(0.36608 -0.0199751 -1.64017e-22)
(0.381715 -0.01915 -7.40299e-23)
(0.397671 -0.0182779 5.91695e-22)
(0.412758 -0.0175426 3.48518e-22)
(0.42918 -0.0165907 -1.73034e-22)
(0.442797 -0.0161078 2.79896e-22)
(0.461158 -0.0148003 -1.15951e-23)
(0.47059 -0.0150347 -9.50047e-23)
(0.495357 -0.0126575 -1.55762e-22)
(0.0103725 0.00325849 2.27607e-20)
(0.0106267 0.000586111 -3.28572e-20)
(0.0125209 -0.00287905 -2.98966e-20)
(0.0155111 -0.00669932 -5.0598e-21)
(0.0193948 -0.0107043 5.53602e-20)
(0.0242198 -0.014663 -7.77202e-20)
(0.0299458 -0.0184072 3.99162e-20)
(0.0365182 -0.0218318 2.09855e-20)
(0.0438888 -0.0248742 4.61595e-21)
(0.0520106 -0.0275059 -2.42007e-20)
(0.0608395 -0.0297239 1.97309e-20)
(0.0703343 -0.0315422 -1.48031e-20)
(0.080456 -0.0329856 3.27813e-21)
(0.0911669 -0.0340849 5.01042e-21)
(0.10243 -0.0348735 1.48335e-21)
(0.11421 -0.0353848 -2.63764e-20)
(0.126468 -0.0356512 1.30026e-20)
(0.139171 -0.035703 6.66339e-21)
(0.152281 -0.0355682 -1.18223e-20)
(0.165763 -0.035272 6.17215e-21)
(0.179582 -0.0348371 6.9296e-21)
(0.193703 -0.0342839 1.6847e-21)
(0.208093 -0.0336307 -6.72643e-22)
(0.222718 -0.0328935 2.51311e-22)
(0.237548 -0.0320868 7.93104e-22)
(0.252549 -0.0312233 3.1565e-22)
(0.267693 -0.0303144 1.03068e-21)
(0.282952 -0.0293701 -2.69324e-21)
(0.298293 -0.0284 5.59318e-23)
(0.3137 -0.0274109 -1.43205e-21)
(0.329128 -0.0264126 1.72606e-21)
(0.344591 -0.0254061 -1.6133e-22)
(0.35999 -0.0244091 -7.83573e-22)
(0.375459 -0.0234015 -1.13279e-21)
(0.39067 -0.0224406 9.53129e-22)
(0.40621 -0.021423 -4.44859e-22)
(0.420901 -0.0205672 5.93209e-22)
(0.436921 -0.0194539 -7.78005e-23)
(0.450184 -0.0188955 -8.71209e-23)
(0.468139 -0.0173622 4.31184e-24)
(0.477302 -0.0176474 2.16347e-22)
(0.501588 -0.0148738 2.59342e-22)
(0.0280853 0.00303568 -8.56101e-20)
(0.028765 -9.72818e-05 7.38772e-21)
(0.0313238 -0.00412275 1.09556e-20)
(0.0350711 -0.00845415 3.37939e-20)
(0.0396478 -0.0129577 -5.06862e-20)
(0.0450801 -0.0173806 -1.17148e-20)
(0.0513014 -0.021542 2.47116e-20)
(0.0582388 -0.0253338 -6.76396e-21)
(0.0658401 -0.0286935 -1.36524e-20)
(0.0740624 -0.031595 1.34978e-20)
(0.082871 -0.0340386 3.5402e-21)
(0.0922374 -0.0360418 -1.17871e-20)
(0.102136 -0.0376328 1.37946e-20)
(0.112544 -0.0388453 -8.34074e-21)
(0.123437 -0.0397156 9.65231e-22)
(0.134791 -0.0402799 2.45304e-20)
(0.14658 -0.0405733 -1.73498e-20)
(0.158777 -0.0406284 5.24592e-21)
(0.171355 -0.0404755 -4.98334e-21)
(0.184285 -0.0401423 4.69049e-21)
(0.197538 -0.0396534 -1.91618e-20)
(0.211084 -0.0390315 8.92273e-21)
(0.224894 -0.0382964 6.16799e-21)
(0.238938 -0.0374662 -1.66245e-21)
(0.253187 -0.0365568 2.73946e-22)
(0.267612 -0.0355825 -3.49036e-22)
(0.282185 -0.0345562 -3.65391e-21)
(0.296881 -0.033489 -4.48048e-22)
(0.311668 -0.0323918 5.83404e-22)
(0.32653 -0.0312723 5.59116e-22)
(0.341424 -0.0301417 5.0228e-22)
(0.356365 -0.029001 8.4945e-22)
(0.371255 -0.0278706 -1.81259e-22)
(0.386226 -0.0267271 1.21623e-21)
(0.400954 -0.0256371 -1.58568e-22)
(0.416019 -0.0244802 -7.65847e-22)
(0.43026 -0.0235103 1.79182e-22)
(0.445823 -0.0222414 -2.1885e-22)
(0.458684 -0.0216135 -3.82024e-22)
(0.476175 -0.0198604 -1.71602e-23)
(0.485035 -0.0202002 3.57342e-23)
(0.50877 -0.0170475 1.32124e-22)
(0.0485658 0.00257222 1.06768e-20)
(0.0496935 -0.0011321 -4.67879e-20)
(0.05296 -0.00568388 2.66092e-20)
(0.0575511 -0.0104752 3.00342e-21)
(0.0628759 -0.0154246 -9.12824e-21)
(0.068945 -0.0202488 6.86805e-20)
(0.0756681 -0.0247598 7.62386e-21)
(0.0829564 -0.0288528 -3.41182e-20)
(0.0907572 -0.0324695 -2.50966e-20)
(0.0990355 -0.0355885 3.24144e-20)
(0.10777 -0.0382145 -2.53846e-20)
(0.116947 -0.0403683 2.10656e-20)
(0.126557 -0.0420806 -2.26042e-20)
(0.136592 -0.0433876 -8.20432e-22)
(0.147043 -0.0443271 1.47825e-21)
(0.157898 -0.0449372 3.9634e-20)
(0.169142 -0.0452543 -6.69838e-21)
(0.18076 -0.045313 3.57143e-21)
(0.192731 -0.045145 -8.75022e-22)
(0.205035 -0.0447796 -3.73216e-21)
(0.217648 -0.0442433 -7.21107e-22)
(0.230546 -0.04356 -5.24881e-21)
(0.243704 -0.0427514 1.16953e-20)
(0.257095 -0.041837 2.17875e-21)
(0.270694 -0.040834 -5.34667e-21)
(0.284475 -0.0397583 2.75522e-21)
(0.29841 -0.0386238 -4.32117e-21)
(0.312477 -0.037443 3.46089e-21)
(0.326646 -0.0362277 -1.21381e-21)
(0.340901 -0.0349867 9.13223e-22)
(0.355202 -0.0337325 -7.09941e-22)
(0.369561 -0.0324659 -4.84283e-22)
(0.383884 -0.0312104 1.73778e-21)
(0.398302 -0.0299387 -2.7344e-22)
(0.412494 -0.0287273 3.57613e-22)
(0.427032 -0.0274382 2.93913e-22)