/*--------------------------------*- C++ -*----------------------------------*\
  =========                 |
  \\      /  F ield         | OpenFOAM: The Open Source CFD Toolbox
   \\    /   O peration     | Website:  https://openfoam.org
    \\  /    A nd           | Version:  7
     \\/     M anipulation  |
\*---------------------------------------------------------------------------*/
FoamFile
{
    version     2.0;
    format      ascii;
    class       surfaceScalarField;
    location    "15";
    object      phi;
}
// * * * * * * * * * * * * * * * * * * * * * * * * * * * * * * * * * * * * * //

dimensions      [0 3 -1 0 0 0 0];

internalField   nonuniform List<scalar> 
12526
(
7.87841e-05
8.02131e-05
8.13196e-05
-7.33724e-07
8.20533e-05
0.000187133
-2.47769e-07
8.23011e-05
0.000180042
4.01087e-07
8.19e-05
1.07076e-05
0.000169735
0.000185262
1.22574e-06
8.06742e-05
1.54507e-05
0.000155511
5.46215e-05
0.000146091
3.58491e-05
2.31036e-06
7.83639e-05
2.12496e-05
0.000136571
7.06441e-05
9.66967e-05
-6.12035e-05
3.69711e-06
7.46668e-05
2.82587e-05
0.00011201
8.95085e-05
3.5447e-05
0.000206996
-0.000178691
-0.000560323
5.42505e-06
6.92417e-05
3.65975e-05
8.08372e-05
0.000111394
-3.93497e-05
0.000251549
-0.000318845
0.000481316
-0.00079009
-0.00147948
7.52425e-06
6.17175e-05
4.63404e-05
4.20211e-05
0.000136345
-0.000129355
0.000301048
-0.000483549
0.000564219
-0.00105326
0.000939403
-0.00185466
-0.002858
1.00142e-05
5.17033e-05
5.75101e-05
-5.47479e-06
0.000164248
-0.000236092
0.000354787
-0.000674088
0.00065032
-0.00134879
0.00105435
-0.0022587
0.00153882
-0.00334247
-0.00449306
1.29033e-05
3.87999e-05
7.00722e-05
-6.26436e-05
0.000194812
-0.000360832
0.000411626
-0.000890902
0.000736513
-0.00167368
0.00115996
-0.00268214
0.00163916
-0.00382167
0.00211427
-0.00496816
-0.00601406
1.61886e-05
2.26113e-05
8.39309e-05
-0.000130386
0.000227561
-0.000504462
0.000470007
-0.00113335
0.000819189
-0.00202286
0.00125098
-0.00311394
0.00171173
-0.00428242
0.00214433
-0.00540076
0.0025165
-0.00638624
-0.0072454
1.98546e-05
2.75674e-06
9.89248e-05
-0.000209456
0.000261825
-0.000667362
0.000528
-0.00139952
0.000894617
-0.00238948
0.00132337
-0.00354269
0.00175523
-0.00471427
0.00214095
-0.00578648
0.00246121
-0.0067065
-0.00750547
0.00272128
2.38717e-05
-2.1115e-05
0.000114823
-0.000300408
0.000296746
-0.000849286
0.000583427
-0.0016862
0.000959386
-0.00276544
0.00137463
-0.00395794
0.00177044
-0.00511008
0.0021084
-0.00612443
0.00238106
-0.00697916
-0.00772466
0.00260025
2.81962e-05
-4.93112e-05
0.000131325
-0.000403536
0.000331304
-0.00104926
0.000634045
-0.00198894
0.00101079
-0.00314219
0.00140388
-0.00435103
0.00175963
-0.00546583
0.00205142
-0.00641621
0.00228165
-0.00720939
-0.00790939
0.00246638
3.27667e-05
-8.20779e-05
0.000148059
-0.000518829
0.000364361
-0.00126557
0.000677758
-0.00230234
0.00104709
-0.00351152
0.00141162
-0.00471556
0.00172591
-0.00578012
0.00197465
-0.00666495
0.00216773
-0.00740247
-0.008065
0.00232333
3.75047e-05
-0.000119583
0.000164598
-0.000645922
0.000394738
-0.00149571
0.00071283
-0.00262043
0.00106753
-0.00386622
0.00139936
-0.00504739
0.00167275
-0.00605351
0.00188232
-0.00687452
0.00204316
-0.00756332
-0.00819572
0.00217389
4.23158e-05
-0.000161898
0.000180471
-0.000784078
0.000421302
-0.00173654
0.000738026
-0.00293716
0.00107226
-0.00420045
0.00136923
-0.00534437
0.00160357
-0.00628785
0.00177809
-0.00704905
0.00191099
-0.00769621
-0.00830483
0.0020201
4.70915e-05
-0.00020899
0.000195186
-0.000932172
0.000443058
-0.00198441
0.000752679
-0.00324678
0.00106212
-0.00450989
0.00132367
-0.00560592
0.0015216
-0.00648578
0.00166502
-0.00719247
0.00177355
-0.00780474
-0.00839475
0.00186346
5.1713e-05
-0.000260703
0.000208259
-0.00108872
0.000459226
-0.00223538
0.000756665
-0.00354422
0.00103844
-0.00479166
0.00126515
-0.00583263
0.00142965
-0.00665028
0.00154556
-0.00730837
0.0016326
-0.00789178
-0.00846722
0.00170508
5.60561e-05
-0.000316759
0.000219246
-0.00125191
0.000469288
-0.00248542
0.000750321
-0.00382525
0.00100282
-0.00504416
0.00119607
-0.00602589
0.00133019
-0.00678439
0.00142169
-0.00739988
0.0014895
-0.00795959
-0.00852348
0.00154575
5.99973e-05
-0.000376756
0.000227768
-0.00141968
0.000473005
-0.00273065
0.000734336
-0.00408658
0.000956949
-0.00526677
0.00111861
-0.00618754
0.00122523
-0.00689102
0.00129495
-0.0074696
0.00134522
-0.00800985
-0.00856438
0.00138611
6.3419e-05
-0.000440175
0.000233532
-0.00158979
0.000470397
-0.00296752
0.000709632
-0.00432581
0.000902534
-0.00545967
0.00103468
-0.00631969
0.00111645
-0.00697279
0.00116652
-0.00751967
0.00120051
-0.00804385
-0.00859051
0.00122665
6.62154e-05
-0.000506391
0.000236349
-0.00175993
0.00046171
-0.00319288
0.000677261
-0.00454137
0.000841175
-0.00562359
0.000945957
-0.00642447
0.00100521
-0.00703204
0.00103731
-0.00755177
0.00105595
-0.00806248
-0.00860229
0.00106772
6.82965e-05
-0.000574687
0.000236133
-0.00192776
0.000447359
-0.00340411
0.000638327
-0.00473233
0.00077434
-0.0057596
0.000853845
-0.00650398
0.000892575
-0.00707077
0.000908039
-0.00756723
0.000911969
-0.00806641
-0.00859993
0.000909613
6.95923e-05
-0.00064428
0.000232899
-0.00209107
0.000427879
-0.00359909
0.000593917
-0.00489837
0.000703338
-0.00586902
0.000759515
-0.00656016
0.000779403
-0.00709066
0.000779243
-0.00756707
0.000768914
-0.00805608
-0.00858357
0.000752548
7.00543e-05
-0.000714334
0.00022675
-0.00224776
0.000403873
-0.00377621
0.000545068
-0.00503957
0.000629311
-0.00595326
0.000663936
-0.00659478
0.000666365
-0.00709309
0.00065134
-0.00755205
0.000627057
-0.0080318
-0.00855321
0.000596701
6.96562e-05
-0.00078399
0.000217861
-0.00239597
0.000375976
-0.00393433
0.000492735
-0.00515632
0.000553243
-0.00601377
0.0005679
-0.00660944
0.000553998
-0.00707919
0.00052466
-0.00752271
0.000486615
-0.00799376
-0.00850879
0.000442193
6.83933e-05
-0.000852383
0.00020646
-0.00253404
0.000344815
-0.00407268
0.000437779
-0.00524929
0.00047597
-0.00605196
0.000472057
-0.00660552
0.000442756
-0.00704989
0.000399519
-0.00747947
0.000347747
-0.00794198
-0.00845015
0.000289106
6.6281e-05
-0.000918664
0.00019281
-0.00266056
0.000310997
-0.00419087
0.000380965
-0.00531926
0.000398193
-0.00606919
0.000376935
-0.00658427
0.000333029
-0.00700598
0.000276313
-0.00742276
0.000210604
-0.00787628
-0.00837673
0.000137184
6.33546e-05
-0.000982019
0.0001772
-0.00277441
0.000275088
-0.00428876
0.000322956
-0.00536713
0.000320491
-0.00606673
0.000282948
-0.00654672
0.000225109
-0.00694814
0.000155398
-0.00735305
7.62033e-05
-0.00779708
-0.00828431
-1.62098e-05
5.96675e-05
-0.00104169
0.000159945
-0.00287469
0.000237614
-0.00436642
0.00026433
-0.00539384
0.000243344
-0.00604574
0.000190426
-0.00649381
0.00011919
-0.00687691
3.62563e-05
-0.00727011
-5.50822e-05
-0.00770574
-0.00818233
-0.00015706
5.52855e-05
-0.00109697
0.000141335
-0.00296074
0.000199049
-0.00442414
0.000205577
-0.00540037
0.00016714
-0.0060073
9.96396e-05
-0.00642631
1.50645e-05
-0.00679233
-7.97332e-05
-0.00717532
-0.000185137
-0.00760034
-0.00806872
-0.000298756
5.02848e-05
-0.00114726
0.000121652
-0.0030321
0.000159825
-0.00446231
0.000147113
-0.00538766
9.21858e-05
-0.00595238
1.06017e-05
-0.00634472
-8.58041e-05
-0.00669592
-0.000193242
-0.00706788
-0.00031148
-0.0074821
-0.00794195
-0.000438249
4.47508e-05
-0.00119201
0.000101168
-0.00308852
0.000120315
-0.00448146
8.92785e-05
-0.00535662
1.88004e-05
-0.0058819
-7.57251e-05
-0.0062502
-0.000184507
-0.00658714
-0.000304149
-0.00694824
-0.000434808
-0.00735144
-0.00780201
-0.000574748
3.87757e-05
-0.00123078
8.01608e-05
-0.00312991
8.08275e-05
-0.00448212
3.24741e-05
-0.00530827
-5.28049e-05
-0.00579662
-0.000160048
-0.00614295
-0.000280688
-0.0064665
-0.000412194
-0.00681673
-0.000555111
-0.00720852
-0.00764916
-0.000707958
3.2446e-05
-0.00126323
5.89109e-05
-0.00315637
4.16999e-05
-0.00446491
-2.32078e-05
-0.00524336
-0.000122542
-0.00569728
-0.000242047
-0.00602345
-0.000374207
-0.00633434
-0.000517295
-0.00667364
-0.000672259
-0.00705356
-0.0074839
-0.000837522
2.58513e-05
-0.00128908
3.76084e-05
-0.00316813
4.51638e-06
-0.00443182
-7.75222e-05
-0.00516132
-0.000190349
-0.00558446
-0.000321618
-0.00589218
-0.000464983
-0.00619098
-0.000619391
-0.00651923
-0.000786109
-0.00688684
-0.00730694
-0.000963065
1.91659e-05
-0.00130825
1.64734e-05
-0.00316544
-3.51103e-05
-0.00438024
-0.000130626
-0.00506581
-0.000256055
-0.00545903
-0.000398674
-0.00574956
-0.000552948
-0.0060367
-0.000718417
-0.00635377
-0.000896554
-0.0067087
-0.00711881
-0.00108468
1.22947e-05
-0.00132054
-3.42699e-06
-0.00314971
-7.23519e-05
-0.00431131
-0.000182183
-0.00495597
-0.000319596
-0.00532162
-0.000473152
-0.005596
-0.000638069
-0.00587179
-0.000814346
-0.00617749
-0.00100364
-0.00651941
-0.0069193
-0.00120316
4.86433e-06
-0.00132541
-2.65727e-05
-0.00311828
-0.000108725
-0.00422916
-0.000231954
-0.00483274
-0.000380887
-0.00517268
-0.00054502
-0.00543187
-0.000720402
-0.0056964
-0.00090734
-0.00599055
-0.00110733
-0.00631941
-0.00670852
-0.00131812
-2.64038e-06
-0.00132277
-4.77429e-05
-0.00307318
-0.000143997
-0.00413291
-0.000279852
-0.00469689
-0.000439808
-0.00501273
-0.000614212
-0.00525747
-0.000800018
-0.0055106
-0.000997808
-0.00579276
-0.00120733
-0.00610989
-0.0064883
-0.00142755
-9.59886e-06
-0.00131317
-6.80924e-05
-0.00301468
-0.000178001
-0.004023
-0.000325826
-0.00454907
-0.000496272
-0.00484228
-0.000680595
-0.00507314
-0.000876658
-0.00531454
-0.00108557
-0.00558384
-0.00130794
-0.00588752
-0.00626978
-0.00152646
-1.66442e-05
-0.00129652
-8.77525e-05
-0.00294357
-0.000210648
-0.0039001
-0.000369802
-0.00438991
-0.000550212
-0.00466187
-0.000744027
-0.00487933
-0.00094972
-0.00510884
-0.00116754
-0.00536602
-0.0013949
-0.00566016
-0.00599792
-0.00166676
-2.35675e-05
-0.00127295
-0.000106712
-0.00286043
-0.000241876
-0.00376494
-0.000411728
-0.00422006
-0.000601601
-0.004472
-0.00080444
-0.00467649
-0.00101886
-0.00489442
-0.00124454
-0.00514035
-0.0014834
-0.0054213
-0.00572889
-0.00175243
-3.03054e-05
-0.00124265
-0.000124921
-0.00276581
-0.000271635
-0.00361822
-0.000451563
-0.00404013
-0.000650402
-0.00427316
-0.000861838
-0.00446505
-0.00108482
-0.00467144
-0.00131982
-0.00490535
-0.00157022
-0.00517091
-0.00545772
-0.00184139
-3.68187e-05
-0.00120583
-0.000142324
-0.00266031
-0.000299884
-0.00346066
-0.000489271
-0.00385074
-0.000696569
-0.00406586
-0.000916125
-0.0042455
-0.00114722
-0.00444034
-0.00139083
-0.00466174
-0.00164992
-0.00491182
-0.00518127
-0.00192637
-4.30758e-05
-0.00116275
-0.000158872
-0.00254451
-0.000326587
-0.00329295
-0.000524828
-0.0036525
-0.000740087
-0.0038506
-0.000967333
-0.00401825
-0.00120621
-0.00420147
-0.00145796
-0.00440998
-0.00172496
-0.00464482
-0.0048983
-0.00200793
-4.90491e-05
-0.00111371
-0.000174524
-0.00241904
-0.000351711
-0.00311576
-0.000558211
-0.003446
-0.000780936
-0.00362788
-0.00101543
-0.00378376
-0.00126165
-0.00395524
-0.00152098
-0.00415066
-0.00179537
-0.00437042
-0.00460832
-0.00208536
-5.47142e-05
-0.00105899
-0.000189245
-0.00228451
-0.000375233
-0.00292977
-0.000589408
-0.00323183
-0.000819106
-0.00339818
-0.0010604
-0.00354246
-0.00131353
-0.00370211
-0.00157992
-0.00388427
-0.00186134
-0.00408901
-0.00431128
-0.00215838
-6.00498e-05
-0.000998941
-0.000203005
-0.00214155
-0.000397132
-0.00273565
-0.000618407
-0.00301055
-0.000854585
-0.003162
-0.00110223
-0.00329481
-0.00136181
-0.00344254
-0.00163479
-0.00361128
-0.00192286
-0.00380094
-0.00400739
-0.00222675
-6.50372e-05
-0.000933904
-0.000215781
-0.00199081
-0.000417393
-0.00253404
-0.000645201
-0.00278274
-0.000887367
-0.00291984
-0.0011409
-0.00304128
-0.00140646
-0.00317698
-0.00168557
-0.00333217
-0.00197989
-0.00350662
-0.00369699
-0.00229029
-6.96605e-05
-0.000864244
-0.000227554
-0.00183291
-0.000436004
-0.00232559
-0.000669785
-0.00254896
-0.000917445
-0.00267218
-0.00117639
-0.00278233
-0.00144746
-0.00290592
-0.00173222
-0.00304741
-0.00203235
-0.0032065
-0.0033805
-0.00234884
-7.39059e-05
-0.000790338
-0.000238307
-0.00166851
-0.000452959
-0.00211093
-0.000692158
-0.00230976
-0.000944817
-0.00241952
-0.0012087
-0.00251845
-0.00148479
-0.00262983
-0.00177472
-0.00275748
-0.00208017
-0.00290104
-0.00305839
-0.00240228
-7.77618e-05
-0.000712576
-0.000248029
-0.00149825
-0.00046825
-0.00189071
-0.000712319
-0.00206569
-0.000969482
-0.00216236
-0.00123781
-0.00225012
-0.00151843
-0.00234921
-0.00181302
-0.00246289
-0.0021233
-0.00259076
-0.00273119
-0.0024505
-8.12185e-05
-0.000631358
-0.000256709
-0.00132275
-0.000481876
-0.00166555
-0.00073027
-0.0018173
-0.000991442
-0.00190119
-0.00126374
-0.00197782
-0.00154838
-0.00206457
-0.00184711
-0.00216415
-0.00216168
-0.00227618
-0.00239945
-0.00249342
-8.42676e-05
-0.00054709
-0.00026434
-0.00114268
-0.000493835
-0.00143605
-0.000746017
-0.00156512
-0.0010107
-0.0016365
-0.00128647
-0.00170206
-0.00157463
-0.00177642
-0.00187697
-0.0018618
-0.00219528
-0.00195788
-0.00206376
-0.00253098
-8.69022e-05
-0.000460188
-0.000270914
-0.00095867
-0.000504126
-0.00120284
-0.000759563
-0.00130968
-0.00102728
-0.00136878
-0.00130602
-0.00142331
-0.00159719
-0.00148525
-0.00190261
-0.00155639
-0.00222408
-0.00163641
-0.00172471
-0.00256313
-8.9116e-05
-0.000371072
-0.000276426
-0.00077136
-0.000512746
-0.00096652
-0.000770911
-0.00105151
-0.00104117
-0.00109853
-0.00132242
-0.00114205
-0.0016161
-0.00119156
-0.00192406
-0.00124843
-0.00224811
-0.00131236
-0.00138295
-0.00258986
-9.09035e-05
-0.000280168
-0.000280869
-0.000581394
-0.000519692
-0.000727697
-0.000780063
-0.000791145
-0.00105238
-0.000826211
-0.00133567
-0.000858766
-0.00163139
-0.000895847
-0.00194137
-0.000938449
-0.00226742
-0.000986308
-0.00103914
-0.00261123
-9.22594e-05
-0.000187909
-0.000284236
-0.000389418
-0.000524959
-0.000486973
-0.000787013
-0.000529091
-0.00106092
-0.000552304
-0.00134579
-0.000573897
-0.00164309
-0.000598548
-0.00195463
-0.000626907
-0.00228217
-0.000658771
-0.000693903
-0.0026274
-9.31789e-05
-9.47299e-05
-0.000286519
-0.000196077
-0.000528537
-0.000244956
-0.000791748
-0.00026588
-0.00106677
-0.000277286
-0.00135276
-0.000287899
-0.00165122
-0.000300088
-0.00196394
-0.000314191
-0.00229258
-0.000330131
-0.000347705
-0.00263878
-9.36576e-05
-1.07229e-06
-0.00028771
-2.02463e-06
-0.000530411
-2.25507e-06
-0.000794249
-2.04205e-06
-0.00106989
-1.6469e-06
-0.00135655
-1.24104e-06
-0.00165573
-8.98683e-07
-0.00196928
-6.48627e-07
-0.0022989
-5.0902e-07
-5.13092e-07
-0.00264609
-9.36915e-05
9.26192e-05
-0.000287801
0.000192084
-0.000530568
0.000240513
-0.000794487
0.000261876
-0.00107023
0.000274098
-0.00135704
0.000285563
-0.00165644
0.000298502
-0.00197031
0.00031322
-0.00230046
0.000329642
0.000347706
-0.00264868
-9.32783e-05
0.000185898
-0.000286783
0.000385589
-0.000528994
0.000482724
-0.000792438
0.00052532
-0.00106775
0.000549412
-0.00135414
0.000571951
-0.00165312
0.000597484
-0.00196655
0.000626645
-0.00229617
0.000659265
0.000695145
-0.00264361
-9.24169e-05
0.000278314
-0.000284654
0.000577827
-0.000525682
0.000723751
-0.000788088
0.000787727
-0.00106243
0.000823751
-0.00134783
0.000857354
-0.00164578
0.000895432
-0.00195808
0.000938947
-0.00228645
0.000987634
0.00104116
-0.00263247
-9.11083e-05
0.000369423
-0.000281414
0.000768132
-0.000520627
0.000962964
-0.000781435
0.00104853
-0.00105426
0.00109658
-0.00133813
0.00114122
-0.00163448
0.00119178
-0.00194508
0.00124955
-0.00227166
0.00131421
0.00138529
-0.00261579
-8.93553e-05
0.000458778
-0.000277064
0.00095584
-0.000513833
0.00119973
-0.000772482
0.00130718
-0.00104326
0.00136736
-0.00132507
0.00142303
-0.00161928
0.00148599
-0.00192766
0.00155793
-0.00225194
0.00163849
0.00172703
-0.00259368
-8.71625e-05
0.000545941
-0.00027161
0.00114029
-0.000505304
0.00143343
-0.00076124
0.00156312
-0.00102946
0.00163558
-0.00130869
0.00170226
-0.00160025
0.00177755
-0.0019059
0.00186358
-0.00222738
0.00195997
0.00206585
-0.0025662
-8.45361e-05
0.000630477
-0.000265062
0.00132081
-0.000495051
0.00166342
-0.00074772
0.00181579
-0.00101287
0.00190073
-0.00128902
0.00197842
-0.00157744
0.00206596
-0.00187985
0.00216599
-0.00219802
0.00227814
0.00240124
-0.00253341
-8.14838e-05
0.000711961
-0.000257429
0.00149676
-0.000483082
0.00188907
-0.000731935
0.00206464
-0.000993506
0.0021623
-0.00126609
0.002251
-0.00155087
0.00235074
-0.00184956
0.00246468
-0.00216392
0.0025925
0.00273265
-0.00249533
-7.80149e-05
0.000789975
-0.000248722
0.00166747
-0.00046941
0.00210976
-0.000713898
0.00230913
-0.000971395
0.00241979
-0.00123994
0.00251954
-0.0015206
0.0026314
-0.00181507
0.00275915
-0.0021251
0.00290253
0.00305955
-0.002452
-7.41397e-05
0.000864115
-0.000238957
0.00183228
-0.000454044
0.00232484
-0.000693618
0.0025487
-0.00094655
0.00267273
-0.00121057
0.00278356
-0.00148663
0.00290747
-0.0017764
0.00304892
-0.00208161
0.00320774
0.00338139
-0.00240346
-6.98702e-05
0.000933985
-0.000228147
0.00199056
-0.000436996
0.00253369
-0.000671107
0.00278281
-0.000918983
0.0029206
-0.00117801
0.00304259
-0.00144901
0.00317847
-0.0017336
0.00333351
-0.0020335
0.00350764
0.00369768
-0.00234979
-6.52202e-05
0.000999205
-0.00021631
0.00214165
-0.000418281
0.00273567
-0.000646375
0.00301091
-0.000888709
0.00316294
-0.00114228
0.00329616
-0.00140774
0.00344394
-0.00168668
0.00361245
-0.00198081
0.00380177
0.00400794
-0.00229106
-6.02048e-05
0.00105941
-0.000203466
0.00228491
-0.000397912
0.00293011
-0.000619431
0.00323243
-0.000855737
0.00339924
-0.00110339
0.00354381
-0.00136286
0.00370341
-0.00163568
0.00388527
-0.0019236
0.00408968
0.00431174
-0.00222741
-5.48416e-05
0.00111425
-0.000189637
0.00241971
-0.000375904
0.00311638
-0.000590287
0.00344681
-0.000820079
0.00362903
-0.00106136
0.00378509
-0.00131438
0.00395643
-0.00158063
0.00415152
-0.00186193
0.00437098
0.00460876
-0.00215895
-4.915e-05
0.0011634
-0.00017485
0.00254541
-0.000352279
0.00329381
-0.000558953
0.00365348
-0.000781746
0.00385183
-0.00101621
0.00401955
-0.00126233
0.00420255
-0.00152153
0.00441072
-0.00179583
0.00464529
0.0048988
-0.00208587
-4.31523e-05
0.00120655
-0.000159136
0.00266139
-0.000327056
0.00346173
-0.000525442
0.00385187
-0.00074075
0.00406713
-0.000967955
0.00424675
-0.00120673
0.00444133
-0.00145838
0.00466236
-0.00172531
0.00491222
0.00518189
-0.0020084
-3.68732e-05
0.00124343
-0.00014253
0.00276705
-0.000300264
0.00361946
-0.000489771
0.00404138
-0.000697102
0.00427446
-0.000916613
0.00446626
-0.00114762
0.00467234
-0.00139114
0.00490588
-0.00165016
0.00517124
0.00545852
-0.00192679
-3.03405e-05
0.00127377
-0.000125076
0.00286178
-0.000271934
0.00376632
-0.000451961
0.0042214
-0.000650821
0.00447332
-0.00086221
0.00467765
-0.00108511
0.00489524
-0.00132003
0.00514081
-0.00157034
0.00542155
0.00572985
-0.00184168
-2.3586e-05
0.00129735
-0.000106822
0.00294502
-0.000242103
0.0039016
-0.000412037
0.00439134
-0.000601923
0.00466321
-0.000804718
0.00488045
-0.00101907
0.0051096
-0.00124471
0.00536645
-0.00148358
0.00566042
0.00599884
-0.00175256
-1.66486e-05
0.001314
-8.78233e-05
0.00301619
-0.000210813
0.00402459
-0.000370033
0.00455056
-0.000550454
0.00484363
-0.000744227
0.00507422
-0.000949846
0.00531522
-0.00116758
0.00558418
-0.00139489
0.00588773
0.00626996
-0.00166601
-9.59161e-06
0.00132359
-6.81299e-05
0.00307473
-0.000178112
0.00413457
-0.000325992
0.00469844
-0.000496446
0.00501409
-0.000680737
0.00525851
-0.000876743
0.00551122
-0.0010856
0.00579304
-0.001308
0.00611012
0.0064889
-0.00152694
-2.62458e-06
0.00132622
-4.77523e-05
0.00311986
-0.000144062
0.00423088
-0.000279964
0.00483434
-0.00043993
0.00517405
-0.000614315
0.0054329
-0.000800099
0.005697
-0.000997902
0.00599084
-0.00120755
0.00631977
0.00670921
-0.00142786
4.8902e-06
0.00132133
-2.6558e-05
0.00315131
-0.000108751
0.00431308
-0.000232021
0.00495761
-0.000380967
0.005323
-0.000545096
0.00559703
-0.000720485
0.00587239
-0.000907476
0.00617783
-0.00110758
0.00651988
0.00692002
-0.00131839
1.23254e-05
0.001309
-3.3804e-06
0.00316701
-7.23455e-05
0.00438204
-0.000182213
0.00506748
-0.000319643
0.00546043
-0.000473206
0.00575059
-0.000638148
0.00603734
-0.000814489
0.00635418
-0.00100388
0.00670927
0.00711957
-0.00120343
1.91991e-05
0.0012898
1.65203e-05
0.00316969
-3.50778e-05
0.00443364
-0.000130625
0.00516302
-0.000256074
0.00558588
-0.000398709
0.00589322
-0.000553017
0.00619164
-0.000718552
0.00651971
-0.000896762
0.00688748
0.00730771
-0.0010849
2.5887e-05
0.00126392
3.76696e-05
0.00315791
4.5643e-06
0.00446674
-7.74951e-05
0.00524508
-0.000190343
0.00569872
-0.000321635
0.00602452
-0.00046504
0.00633505
-0.000619512
0.00667418
-0.000786282
0.00705425
0.00748463
-0.000963207
3.24844e-05
0.00123143
5.89837e-05
0.00313141
4.17733e-05
0.00448395
-2.31562e-05
0.00531001
-0.000122516
0.00579808
-0.000242048
0.00614405
-0.000374251
0.00646725
-0.000517398
0.00681733
-0.000672396
0.00720925
0.00764985
-0.000837607
3.8816e-05
0.00119262
8.02429e-05
0.00308998
8.09178e-05
0.00448328
3.25458e-05
0.00535838
-5.27589e-05
0.00588339
-0.000160034
0.00625132
-0.000280718
0.00658794
-0.000412277
0.00694889
-0.000555214
0.00735218
0.00780264
-0.000708005
4.47923e-05
0.00114782
0.000101258
0.00303352
0.000120421
0.00446412
8.93695e-05
0.00538944
1.88645e-05
0.00595389
-7.56952e-05
0.00634588
-0.000184521
0.00669676
-0.000304209
0.00706858
-0.000434879
0.00748286
0.00794253
-0.000574768
5.03268e-05
0.0010975
0.000121749
0.0029621
0.000159943
0.00442592
0.000147221
0.00540216
9.22672e-05
0.00600885
1.06471e-05
0.0064275
-8.58026e-05
0.00679321
-0.00019328
0.00717605
-0.000311525
0.0076011
0.00806925
-0.000438251
5.53278e-05
0.00104217
0.000141437
0.00287599
0.000199181
0.00436818
0.000205702
0.00539564
0.000167238
0.00604731
9.97004e-05
0.00649504
1.50817e-05
0.00687783
-7.97519e-05
0.00727089
-0.000185159
0.00770651
0.00818284
-0.000298746
5.97096e-05
0.00098246
0.000160051
0.00277565
0.000237756
0.00429047
0.00026447
0.00536892
0.000243459
0.00606832
0.000190503
0.006548
0.000119224
0.00694911
3.62557e-05
0.00735386
-5.50851e-05
0.00779785
0.0082848
-0.000157044
6.33963e-05
0.000919064
0.00017731
0.00266173
0.000275241
0.00419254
0.000323113
0.00532105
0.000320623
0.00607081
0.000283041
0.00658558
0.000225159
0.00700699
0.000155416
0.0074236
7.62152e-05
0.00787705
0.0083772
-1.61917e-05
6.63219e-05
0.000852742
0.000192923
0.00253513
0.00031116
0.00407431
0.000381136
0.00525107
0.000398342
0.00605361
0.000377045
0.00660688
0.000333095
0.00705094
0.000276347
0.00748035
0.000210629
0.00794277
0.00845063
0.000137208
6.84332e-05
0.000784309
0.000206576
0.00239699
0.000344987
0.00393589
0.000437966
0.00515809
0.000476137
0.00601544
0.000472184
0.00661083
0.000442839
0.00708029
0.000399569
0.00752362
0.000347785
0.00799455
0.00850928
0.000289131
6.96947e-05
0.000714614
0.000217977
0.00224871
0.000376156
0.00377772
0.000492937
0.00504131
0.000553428
0.00595495
0.000568045
0.00659621
0.000554099
0.00709423
0.000524726
0.00755299
0.000486663
0.00803261
0.00855372
0.000442221
7.00912e-05
0.000644523
0.000226867
0.00209193
0.000404062
0.00360052
0.000545285
0.00490009
0.000629515
0.00587072
0.000664101
0.00656163
0.000666484
0.00709185
0.000651422
0.00756805
0.000627117
0.00805692
0.00858411
0.000596732
6.96273e-05
0.000574895
0.000233015
0.00192854
0.000428074
0.00340546
0.00059415
0.00473402
0.000703562
0.0057613
0.000759702
0.00650549
0.000779542
0.00707201
0.000779342
0.00756825
0.000768986
0.00806727
0.00860051
0.000752584
6.83294e-05
0.000506566
0.000236248
0.00176062
0.00044756
0.00319415
0.000638574
0.004543
0.000774586
0.00562529
0.000854054
0.00642602
0.000892735
0.00703333
0.000908156
0.00755283
0.000912054
0.00806338
0.00860291
0.000909656
6.6246e-05
0.00044032
0.000236461
0.00159041
0.000461914
0.0029687
0.000677522
0.00432739
0.000841442
0.00546137
0.000946191
0.00632127
0.00100539
0.00697413
0.00103745
0.00752077
0.00105605
0.00804478
0.00859118
0.00106778
6.34471e-05
0.000376873
0.00023364
0.00142022
0.000470603
0.00273173
0.000709905
0.00408809
0.000902822
0.00526846
0.00103494
0.00618915
0.00111666
0.0068924
0.00116668
0.00747076
0.00120063
0.00801082
0.0085651
0.00122671
6.00228e-05
0.00031685
0.00022787
0.00125237
0.00047321
0.00248639
0.000734619
0.00382668
0.000957259
0.00504582
0.00111889
0.00602752
0.00122547
0.00678583
0.00129513
0.00740109
0.00134535
0.0079606
0.00852426
0.00138619
5.6079e-05
0.000260771
0.000219342
0.00108911
0.00046949
0.00223624
0.000750613
0.00354556
0.00100315
0.00479328
0.00119639
0.00583427
0.00133045
0.00665177
0.00142191
0.00730964
0.00148966
0.00789285
0.00846806
0.00154585
5.17331e-05
0.000209038
0.000208347
0.000932492
0.000459421
0.00198517
0.000756961
0.00324802
0.00103879
0.00451145
0.0012655
0.00560756
0.00142996
0.00648731
0.0015458
0.00719379
0.00163279
0.00780587
0.00839566
0.0017052
4.71089e-05
0.000161929
0.000195266
0.000784336
0.000443244
0.00173719
0.000752976
0.00293829
0.00106248
0.00420195
0.00132404
0.00534601
0.00152193
0.00628942
0.00166529
0.00705043
0.00177376
0.0076974
0.00830581
0.00186361
4.23307e-05
0.000119599
0.000180543
0.000646124
0.000421476
0.00149626
0.000738319
0.00262144
0.00107263
0.00386763
0.00136964
0.00504901
0.00160395
0.00605511
0.00177841
0.00687597
0.00191124
0.00756457
0.00819677
0.00202028
3.75171e-05
8.20814e-05
0.000164661
0.000518979
0.000394898
0.00126602
0.000713114
0.00230323
0.00106792
0.00351283
0.00139979
0.00471713
0.00167316
0.00578174
0.00188268
0.00666645
0.00204345
0.00740379
0.00806612
0.0021741
3.27767e-05
4.93047e-05
0.000148113
0.000403643
0.000364505
0.00104963
0.000678028
0.0019897
0.00104748
0.00314338
0.00141208
0.00435253
0.00172636
0.00546745
0.00197505
0.00641776
0.00216806
0.00721078
0.0079106
0.00232358
2.82042e-05
2.11006e-05
0.00013137
0.000300477
0.000331431
0.00084957
0.000634295
0.00168684
0.00101118
0.0027665
0.00140435
0.00395936
0.00176012
0.00511168
0.00205187
0.00612602
0.00228203
0.00698062
0.00772595
0.00246668
2.38778e-05
-2.77724e-06
0.000114861
0.000209494
0.000296856
0.000667575
0.000583655
0.00140004
0.000959752
0.0023904
0.00137511
0.003544
0.00177096
0.00471583
0.00210889
0.00578808
0.00238149
0.00670802
0.00750684
0.0026006
1.9859e-05
-2.26362e-05
9.89552e-05
0.000130398
0.000261918
0.000504612
0.000528202
0.00113376
0.000894961
0.00202364
0.00132385
0.00311511
0.00175577
0.0042839
0.00214149
0.00540237
0.00246171
0.00638781
0.00724686
0.00272168
1.61917e-05
-3.88279e-05
8.39549e-05
6.26349e-05
0.000227638
0.000360929
0.000470182
0.000891214
0.000819503
0.00167432
0.00125144
0.00268317
0.00171229
0.00382305
0.00214491
0.00496974
0.00251706
1.29053e-05
-5.17332e-05
7.00908e-05
5.4494e-06
0.000194875
0.000236145
0.000411775
0.000674314
0.000736793
0.0013493
0.00116039
0.00225958
0.00163972
0.00334372
0.00449458
1.00154e-05
-6.17486e-05
5.75244e-05
-4.20596e-05
0.000164298
0.000129371
0.000354911
0.000483702
0.000650564
0.00105365
0.00105475
0.00185539
0.00153937
0.0028591
7.52494e-06
-6.92736e-05
4.63514e-05
-8.08861e-05
0.000136386
3.93365e-05
0.000301151
0.000318937
0.000564426
0.000790374
0.000939758
0.00148005
5.42553e-06
-7.46991e-05
3.66063e-05
-0.000112067
0.000111427
-3.54844e-05
0.000251633
0.000178731
0.00048149
0.000560517
3.69764e-06
-7.83967e-05
2.82663e-05
-0.000136636
8.95362e-05
-9.67542e-05
0.000207066
6.1202e-05
2.31113e-06
-8.07079e-05
2.12568e-05
-0.000155581
7.06683e-05
-0.000146166
-3.58852e-05
1.2269e-06
-8.19348e-05
1.5458e-05
-0.000169812
5.46436e-05
-0.000185351
4.02646e-07
-8.23374e-05
1.07154e-05
-0.000180125
-2.45562e-07
-8.20919e-05
-0.000187222
-7.31398e-07
-8.13605e-05
-8.02566e-05
0.00680971
0.00117346
-0.00675652
0.00686137
0.00133446
0.00691124
0.00149588
0.00695901
0.00165731
0.00700416
0.00181831
0.00704593
0.00197834
0.00708308
0.00213674
0.0071138
0.00229261
0.0071354
0.00244478
0.00714405
0.0025916
0.00273083
0.00697687
0.00111992
-0.00692333
0.00702986
0.00128147
0.0070822
0.00144354
0.00713372
0.00160579
0.00718415
0.00176787
0.00723309
0.0019294
0.0072799
0.00208993
0.00732363
0.00224889
0.00736284
0.00240557
0.00739542
0.00255902
0.00270791
0.00715241
0.00106818
-0.00710067
0.00720455
0.00122933
0.00725707
0.00139102
0.00730991
0.00155295
0.00736294
0.00171484
0.00741597
0.00187638
0.00746867
0.00203722
0.00752058
0.00219698
0.007571
0.00235515
0.00761889
0.00251113
0.0026641
0.00734052
0.00101875
-0.00729109
0.00739089
0.00117895
0.00744229
0.00133962
0.00749476
0.00150048
0.0075483
0.0016613
0.00760289
0.00182179
0.00765843
0.00198169
0.00771473
0.00214067
0.00777149
0.00229839
0.00782822
0.0024544
0.00260825
0.00754108
0.000971408
-0.00749374
0.00758972
0.00113032
0.00763974
0.00128959
0.00769124
0.00144898
0.00774429
0.00160825
0.00779894
0.00176714
0.00785521
0.00192541
0.00791307
0.00208281
0.00797238
0.00223907
0.00803291
0.00239387
0.002547
0.00775256
0.000925818
-0.00770697
0.00779971
0.00108317
0.00784849
0.00124081
0.00789899
0.00139849
0.00795128
0.00155596
0.00800543
0.00171299
0.00806148
0.00186936
0.00811946
0.00202483
0.00817935
0.00217918
0.0082411
0.00233213
0.00248355
0.00797379
0.000881765
-0.00792974
0.00801963
0.00103733
0.00806733
0.00119312
0.00811694
0.00134887
0.00816852
0.00150437
0.00822214
0.00165938
0.00827784
0.00181366
0.00833568
0.00196699
0.0083957
0.00211916
0.00845795
0.00226987
0.00241903
0.00820452
0.000839214
-0.00816197
0.0082491
0.000992755
0.00829576
0.00114646
0.00834454
0.00130009
0.0083955
0.00145342
0.00844867
0.0016062
0.0085041
0.00175823
0.00856184
0.00190925
0.00862194
0.00205907
0.0086844
0.00220741
0.00235415
0.0084442
0.000798072
-0.00840306
0.00848759
0.000949367
0.00853327
0.00110078
0.00858127
0.00125208
0.00863165
0.00140304
0.00868441
0.00155343
0.0087396
0.00170304
0.00879723
0.00185162
0.00885732
0.00199898
0.00891987
0.00214486
0.00228912
0.00869269
0.00075828
-0.0086529
0.00873493
0.000907129
0.00877965
0.00105606
0.00882689
0.00120484
0.00887667
0.00135326
0.00892902
0.00150109
0.00898393
0.00164812
0.00904144
0.00179412
0.00910153
0.00193888
0.00916422
0.00208217
0.00222381
0.00894986
0.000719775
-0.00891135
0.00899099
0.000865998
0.00903478
0.00101227
0.00908126
0.00115837
0.00913044
0.00130408
0.00918235
0.00144919
0.00923699
0.00159348
0.00929437
0.00173674
0.00935449
0.00187876
0.00941736
0.00201931
0.0021582