/*--------------------------------*- C++ -*----------------------------------*\
  =========                 |
  \\      /  F ield         | OpenFOAM: The Open Source CFD Toolbox
   \\    /   O peration     | Website:  https://openfoam.org
    \\  /    A nd           | Version:  7
     \\/     M anipulation  |
\*---------------------------------------------------------------------------*/
FoamFile
{
    version     2.0;
    format      ascii;
    class       volScalarField;
    location    "30";
    object      p;
}
// * * * * * * * * * * * * * * * * * * * * * * * * * * * * * * * * * * * * * //

dimensions      [0 2 -2 0 0 0 0];

internalField   nonuniform List<scalar> 
8330
(
0.0180798
0.0149143
0.0142472
0.01306
0.0121611
0.0112069
0.0103282
0.00954024
0.00888635
0.00843775
0.00814991
0.00824391
0.00825096
0.00914763
0.0179602
0.0148178
0.0141562
0.012977
0.0120834
0.0111339
0.0102588
0.00947425
0.0088221
0.00837905
0.00808791
0.00820616
0.00818872
0.00919177
0.0177211
0.0146247
0.0139742
0.0128112
0.0119282
0.010988
0.0101199
0.00934179
0.00869236
0.00825995
0.00795969
0.00812784
0.00805358
0.00927328
0.0173654
0.0143373
0.0137038
0.0125652
0.0116984
0.0107725
0.00991509
0.00914675
0.00850094
0.00808531
0.00776726
0.008017
0.00784092
0.00939939
0.0168975
0.0139589
0.0133486
0.0122429
0.0113985
0.0104922
0.00964956
0.00889491
0.0082535
0.00786248
0.00751342
0.00788614
0.00754351
0.00958132
0.0163232
0.0134939
0.0129132
0.0118495
0.011034
0.0101535
0.00933017
0.00859384
0.00795736
0.00760136
0.00720145
0.00775263
0.00715133
0.00983437
0.0156489
0.0129474
0.0124032
0.0113909
0.0106119
0.00976375
0.00896519
0.00825273
0.0076214
0.00731443
0.00683488
0.00763896
0.00665223
0.0101779
0.0148823
0.012325
0.0118249
0.010874
0.0101398
0.00933182
0.00856412
0.00788226
0.00725575
0.00701673
0.00641739
0.00757242
0.00603342
0.0106375
0.0140315
0.0116329
0.0111851
0.0103064
0.00962626
0.0088672
0.00813744
0.00749428
0.00687161
0.00672543
0.00595341
0.00758444
0.00527782
0.0112544
0.0131048
0.0108775
0.0104908
0.00969586
0.00908031
0.00838005
0.00769635
0.00710156
0.00648097
0.00645895
0.00544802
0.00771286
0.00435284
0.0120851
0.0121107
0.0100651
0.00974933
0.00905043
0.00851117
0.00788085
0.00725242
0.00671736
0.00609677
0.00623723
0.00490348
0.00799648
0.00327354
0.0130843
0.0110573
0.00920172
0.00896752
0.00837803
0.00792801
0.00738001
0.00681722
0.00635475
0.00573217
0.00608635
0.00433114
0.00839152
0.00244127
0.0138843
0.00995202
0.00829314
0.00815199
0.0076862
0.00733963
0.0068876
0.00640199
0.00602593
0.00539658
0.00602237
0.00384483
0.00868568
0.00175743
0.0148357
0.00880153
0.00734431
0.00730867
0.00698186
0.0067542
0.0064129
0.00601728
0.00574255
0.00510396
0.00595049
0.00354257
0.00909147
0.00103594
0.0159517
0.00761118
0.00635934
0.00644263
0.00627104
0.00617886
0.00596409
0.00567225
0.00551248
0.0049257
0.00591589
0.00329564
0.00968937
0.00033602
0.0171848
0.00638486
0.00534128
0.00555785
0.00555865
0.00561951
0.00554785
0.00537491
0.00533161
0.00482231
0.00599247
0.00311422
0.0104439
-0.000240215
0.018458
0.00512473
0.00429195
0.00465706
0.00484824
0.00508047
0.00516888
0.00513193
0.00521753
0.00479112
0.00616806
0.00305151
0.011301
-0.000576808
0.0196505
0.00383096
0.00321183
0.00374153
0.0041417
0.00456432
0.00482973
0.00494485
0.00517341
0.00484679
0.00642239
0.00315788
0.0121899
-0.000523859
0.0206171
0.00250162
0.00209987
0.00281092
0.00343919
0.0040716
0.00453105
0.00481382
0.00519607
0.0049976
0.0067393
0.00348022
0.0130289
8.7831e-05
0.0212533
0.00113245
0.000953456
0.00186322
0.00273992
0.00359974
0.00427057
0.00473671
0.0052805
0.00524535
0.00710673
0.00405673
0.0137475
0.00139644
0.0215789
-0.000283176
-0.000231935
0.000894734
0.00203932
0.00314541
0.00404342
0.00470848
0.00542025
0.00558657
0.00752227
0.004906
0.0143211
0.00344105
0.0217775
-0.00146285
-9.97556e-05
0.00133185
0.00270197
0.00384208
0.00472123
0.00560812
0.00601239
0.0079976
0.00602075
0.0147958
0.00612182
0.0221381
-0.0027459
-0.00112873
0.000609872
0.00226041
0.0036566
0.00476469
0.00583738
0.00651048
0.00855527
0.00737216
0.0152864
0.00923106
0.0229255
-0.0040853
-0.00220596
-0.000136504
0.00180962
0.00347499
0.00482677
0.00610254
0.00707002
0.00921968
0.008924
0.0159376
0.0125482
0.0242805
-0.00549851
-0.00333678
-0.000918846
0.0013365
0.00328366
0.00489472
0.00639929
0.00768739
0.0100097
0.0106484
0.0168729
0.0159371
0.0261973
-0.00453422
-0.00175061
0.000826418
0.00306817
0.00495649
0.00672417
0.00836818
0.0109385
0.0125313
0.0181656
0.0193937
0.0285251
-0.00581319
-0.00264663
0.000263714
0.00281429
0.00500235
0.00707481
0.00912379
0.0120192
0.0145658
0.0198458
0.0230109
0.0309555
-0.00718893
-0.00362278
-0.000367706
0.00250904
0.00502585
0.00745087
0.00996639
0.0132685
0.0167439
0.0219274
0.0268055
0.0331781
-0.00867728
-0.00469551
-0.00108342
0.00214178
0.00502392
0.00785498
0.0109068
0.0147046
0.0190625
0.0244135
0.0305028
0.0355067
-0.00588098
-0.00189762
0.00170492
0.00499593
0.00829338
0.0119559
0.0163416
0.0215337
0.0272639
0.0339384
0.0392206
-0.00719633
-0.00282219
0.0011937
0.00494283
0.00877661
0.0131268
0.0181869
0.0241718
0.0303584
0.0375328
0.04316
-0.00386598
0.000605259
0.00486767
0.00932019
0.0144346
0.0202416
0.0269729
0.0336706
0.0412208
0.0471921
-0.00503494
-6.24847e-05
0.00477786
0.00994424
0.0158947
0.0224984
0.0299367
0.037148
0.0450258
0.0513158
-0.00633314
-0.000810444
0.00468788
0.0106716
0.0175191
0.0249471
0.0330547
0.0407641
0.0489427
0.055494
-0.00163576
0.00462029
0.0115252
0.0193161
0.0275761
0.0363174
0.0445003
0.0529611
0.0597447
-0.0025278
0.00460403
0.0125252
0.0212898
0.0303743
0.0397158
0.048346
0.057077
0.0640675
0.0046711
0.0136884
0.0234414
0.0333325
0.0432424
0.0522963
0.0612862
0.0684711
0.0150277
0.0257707
0.0364437
0.0468927
0.05635
0.0655889
0.0729611
0.0165534
0.0282771
0.0397037
0.0506651
0.060509
0.069987
0.0775437
0.0309606
0.0431112
0.0545609
0.064777
0.0744841
0.0822246
0.0466675
0.0585836
0.0691593
0.0790854
0.0870095
0.0627389
0.0736622
0.0837965
0.0919041
0.0782927
0.0886237
0.0969137
0.0935736
0.102044
0.107299
0.107238
0.0830041
0.0935146
0.10198
0.0669834
0.0782363
0.0885622
0.0968473
0.0626869
0.0736035
0.0837322
0.0918346
0.0466213
0.0585299
0.0690983
0.0790182
0.0869367
0.0309214
0.0430639
0.0545053
0.0647134
0.0744139
0.0821482
0.0165219
0.0282375
0.0396552
0.0506076
0.0604427
0.0699134
0.0774634
0.0149968
0.0257309
0.036394
0.0468332
0.0562809
0.0655117
0.0728766
0.00464873
0.0136581
0.0234014
0.0332816
0.0431807
0.0522241
0.0612052
0.068382
-0.00254338
0.004583
0.0124957
0.0212497
0.0303223
0.0396519
0.0482705
0.0569917
0.0639733
-0.0016498
0.00460062
0.0114965
0.0192759
0.0275229
0.0362512
0.0444213
0.0528713
0.0596452
-0.006344
-0.000823065
0.00466955
0.0106438
0.0174789
0.0248927
0.032986
0.0406813
0.048848
0.0553886
-0.00504472
-7.38487e-05
0.00476078
0.00991724
0.0158546
0.0224429
0.0298655
0.0370613
0.0449258
0.051204
-0.00866698
-0.00387488
0.000594945
0.0048517
0.00929404
0.0143946
0.020185
0.0268992
0.0335797
0.0411151
0.0470732
-0.00720636
-0.00283044
0.00118419
0.00492776
0.00875121
0.0130868
0.0181293
0.0240956
0.030263
0.0374211
0.0430334
-0.00589073
-0.00190549
0.00169593
0.0049815
0.00826855
0.011916
0.0162829
0.021455
0.027164
0.0338202
0.0390855
-0.00869068
-0.00470531
-0.00109119
0.00213301
0.00500982
0.0078305
0.0108669
0.0146451
0.0189814
0.024309
0.0303781
0.0353624
-0.00720259
-0.00363277
-0.00037568
0.00250014
0.00501172
0.00742645
0.00992628
0.0132081
0.0166604
0.0218183
0.0266743
0.033023
-0.00582729
-0.00265706
0.000255244
0.00280492
0.00498784
0.00705011
0.00908325
0.011958
0.0144801
0.0197323
0.0228735
0.0307908
-0.00701477
-0.00454892
-0.0017617
0.000817179
0.00305799
0.00494123
0.00669884
0.00832694
0.0108763
0.0124435
0.0180479
0.0192507
0.0283512
-0.00551695
-0.00335222
-0.000930776
0.00132625
0.00327237
0.00487834
0.00637296
0.00764518
0.00994643
0.0105585
0.0167514
0.0157893
0.0260141
-0.00410436
-0.00222226
-0.000149417
0.00179817
0.00346233
0.00480897
0.00607488
0.00702653
0.00915522
0.0088321
0.0158127
0.0123959
0.0240881
-0.00276555
-0.00114602
0.000595873
0.00224761
0.00364239
0.0047452
0.00580808
0.00646542
0.00848939
0.00727825
0.0151587
0.00907444
0.0227245
-0.0014834
-0.00011778
0.00131671
0.00268772
0.00382617
0.00469989
0.00557697
0.00596554
0.00793012
0.00592478
0.0146659
0.00596095
0.0219297
-0.000308822
-0.000253193
0.000875853
0.00202303
0.0031297
0.00402576
0.00468519
0.00538711
0.00553778
0.00745306
0.00480795
0.0141895
0.00327602
0.0215636
0.00110598
0.00093159
0.0018435
0.00272254
0.00358257
0.00425117
0.00471148
0.00524534
0.00519459
0.00703574
0.00395672
0.0136146
0.0012276
0.0213614
0.00247447
0.00207748
0.00279046
0.00342084
0.00405302
0.00450999
0.00478674
0.00515896
0.00494496
0.00666656
0.00337849
0.012895
-8.41017e-05
0.0210341
0.0038033
0.00318902
0.00372046
0.0041224
0.00454458
0.00480718
0.00491609
0.00513451
0.00479249
0.00634808
0.00305485
0.0120554
-0.00069782
0.0203977
0.00509674
0.00426889
0.00463552
0.00482819
0.00505971
0.00514504
0.00510176
0.00517711
0.00473549
0.00609249
0.00294775
0.0111661
-0.000751516
0.0194321
0.00635678
0.00531811
0.00553602
0.00553805
0.00559795
0.005523
0.00534365
0.00528996
0.00476586
0.00591607
0.0030105
0.0103093
-0.000414279
0.0182418
0.00758323
0.00633626
0.00642071
0.0062501
0.00615676
0.00593854
0.00564022
0.00547001
0.00486922
0.00583902
0.00319285
0.00955594
0.00016406
0.0169721
0.00877397
0.00732152
0.00728687
0.00696083
0.00673183
0.00638699
0.0059849
0.00570011
0.0050481
0.0058739
0.00344142
0.00896001
0.000867682
0.015744
0.00992511
0.00827085
0.00813054
0.00766533
0.0073173
0.00686168
0.00636971
0.00598385
0.0053407
0.00594935
0.00374503
0.00855738
0.00159462
0.0146347
0.0110313
0.00918015
0.00894665
0.00835759
0.00790602
0.00735447
0.00678548
0.00631358
0.0056776
0.00601512
0.00423414
0.00826871
0.00228484
0.0136922
0.0120859
0.0100444
0.00972928
0.00903068
0.00848984
0.00785604
0.00722167
0.00667764
0.00604438
0.00616871
0.0048115
0.00788126
0.00312035
0.0129055
0.0130814
0.010858
0.0104719
0.00967705
0.00905994
0.00835635
0.00766703
0.00706383
0.00643142
0.00639418
0.00536186
0.00760462
0.00421072
0.0119173
0.0140098
0.0116148
0.0111674
0.0102888
0.00960715
0.00884495
0.00810996
0.00745903
0.00682548
0.00666522
0.00587385
0.00748408
0.00514783
0.011099
0.0148626
0.0123085
0.0118087
0.0108579
0.0101222
0.00931135
0.00853888
0.00784997
0.00721363
0.00696181
0.00634523
0.00748113
0.00591623
0.0104964
0.0156313
0.0129327
0.0123887
0.0113764
0.0105961
0.00974537
0.00894256
0.00822383
0.00758379
0.00726547
0.00677084
0.00755781
0.00654874
0.0100527
0.0163079
0.0134811
0.0129006
0.0118369
0.0110203
0.0101374
0.00931046
0.00856871
0.00792475
0.00755893
0.00714617
0.0076825
0.00706235
0.00972626
0.0168848
0.0139482
0.0133381
0.0122324
0.0113869
0.0104788
0.00963304
0.0088739
0.00822626
0.00782709
0.00746743
0.00782777
0.00746975
0.00949141
0.0173553
0.0143288
0.0136955
0.0125568
0.0116893
0.0107619
0.009902
0.00913012
0.00847941
0.00805736
0.00773102
0.00797099
0.00778294
0.00932856
0.0177138
0.0146186
0.0139682
0.0128051
0.0119215
0.0109803
0.0101104
0.00932976
0.00867679
0.00823976
0.00793355
0.00809465
0.00801183
0.00922221
0.0179558
0.0148141
0.0141525
0.0129734
0.0120794
0.0111292
0.0102531
0.00946697
0.00881268
0.00836684
0.00807213
0.00818611
0.00816353
0.00916094
0.0180783
0.0149131
0.014246
0.0130588
0.0121597
0.0112053
0.0103263
0.0095378
0.0088832
0.00843367
0.00814463
0.00823721
0.00824254
0.00913732
0.0091888
0.00925632
0.00935092
0.00945428
0.00956777
0.0096928
0.00982939
0.00997745
0.0101368
0.0103072
0.0104878
0.010678
0.0108764
0.0110816
0.0112915
0.0115038
0.0117156
0.0119234
0.0121233
0.0123104
0.0124796
0.0126247
0.0127389
0.0128147
0.0128438
0.0128173
0.0127256
0.0125587
0.0123066
0.0119593
0.0115077
0.010944
0.0102626
0.00946139
0.00854258
0.00751392
0.00639102
0.00519892
0.00397031
0.00274656
0.0016404
0.000452107
0.00915912
0.00922659
0.00932713
0.0094337
0.00954953
0.0096769
0.00981585
0.00996627
0.010128
0.0103008
0.0104839
0.0106765
0.0108774
0.011085
0.0112973
0.0115119
0.0117259
0.0119358
0.0121376
0.0123266
0.0124973
0.0126439
0.0127592
0.012836
0.0128658
0.0128396
0.0127479
0.0125807
0.0123278
0.0119792
0.0115259
0.0109599
0.0102756
0.00947095
0.00854808
0.00751474
0.00638661
0.00518889
0.00395516
0.00272624
0.00162645
0.000427605
0.00909037
0.00915691
0.00926914
0.00938187
0.00950205
0.00963379
0.00977716
0.00993203
0.0100983
0.0102757
0.0104636
0.010661
0.0108668
0.0110792
0.0112964
0.0115159
0.0117346
0.0119493
0.0121556
0.012349
0.012524
0.0126744
0.0127934
0.0128734
0.0129059
0.0128819
0.0127918
0.0126255
0.0123727
0.0120233
0.011568
0.0109988
0.01031
0.00949955
0.00856942
0.00752728
0.00638891
0.00517965
0.00393484
0.00269337
0.00160366
0.000379358
0.00898616
0.00905006
0.00918004
0.00930201
0.00942851
0.00956657
0.00971631
0.00987761
0.0100504
0.0102345
0.0104292
0.0106336
0.0108465
0.0110661
0.0112905
0.0115171
0.0117431
0.0119649
0.0121783
0.0123785
0.0125601
0.0127168
0.0128417
0.0129271
0.0129644
0.0129445
0.0128576
0.0126935
0.0124417
0.0120919
0.0116346
0.0110616
0.0103669
0.00954846
0.00860816
0.0075534
0.00640007
0.00517346
0.00391168
0.00264915
0.0015728
0.000305314
0.00885083
0.00890934
0.00906382
0.00919849
0.00933328
0.00947959
0.00963761
0.00980715
0.00998833
0.0101809
0.0103843
0.0105976
0.0108194
0.0110481
0.0112817
0.0115177
0.011753
0.011984
0.0122066
0.0124159
0.0126063
0.0127716
0.0129045
0.0129973
0.0130414
0.0130275
0.0129454
0.0127849
0.0125351
0.0121856
0.0117266
0.0111493
0.0104475
0.00961934
0.00866639
0.00759562
0.00642306
0.00517349
0.00388915
0.00259589
0.00154007
0.000202267
0.00868785
0.00873748
0.00892465
0.00907621
0.00922157
0.00937819
0.00954641
0.00972592
0.00991703
0.0101197
0.0103332
0.0105568
0.0107892
0.0110287
0.0112731
0.01152
0.0117664
0.0120085
0.0122421
0.0124624
0.0126636
0.0128392
0.0129822
0.0130844
0.0131371
0.0131308
0.0130552
0.0128997
0.0126531
0.0123048
0.0118445
0.0112629
0.0105531
0.00971402
0.00874652
0.00765693
0.00646148
0.0051837
0.0038718
0.00253641
0.0015028
6.51239e-05
0.00849753
0.00853561
0.00876622
0.00894013
0.00909891
0.00926833
0.00944888
0.00964005
0.0098425
0.0100564
0.0102813
0.0105163
0.0107603
0.0110116
0.011268
0.0115271
0.0117857
0.0120403
0.0122864
0.0125191
0.0127326
0.0129204
0.013075
0.0131884
0.0132514
0.0132544
0.0131868
0.0130377
0.0127957
0.0124496
0.0119888
0.0114032
0.0106849
0.00983419
0.00885092
0.0077404
0.00651925
0.0052085
0.00386493
0.00247458
0.00146832
-0.000111861
0.00827413
0.00830372
0.00859229
0.00879516
0.00897103
0.00915641
0.00935175
0.00955635
0.00977139
0.00999747
0.0102344
0.0104815
0.0107377
0.0110013
0.0112703
0.0115422
0.0118139
0.0120817
0.0123413
0.0125875
0.0128145
0.0130155
0.0131832
0.013309
0.0133838
0.0133976
0.0133395
0.0131983
0.0129623
0.0126197
0.0121594
0.0115708
0.0108434
0.00998112
0.00898164
0.00784885
0.00660018
0.00525237
0.00387431
0.00241464
0.0014427
-0.000331756
0.00798431
0.008038
0.00840605
0.00864518
0.00884316
0.00904879
0.00926202
0.009482
0.0097108
0.00994972
0.010199
0.0104583
0.0107266
0.0110026
0.0112843
0.011569
0.011854
0.0121353
0.0124087
0.0126689
0.01291
0.0131251
0.0133067
0.0134461
0.0135338
0.0135595
0.0135123
0.0133804
0.0131516
0.0128139
0.0123558
0.0117656
0.0110283
0.0101554
0.00914009
0.0079845
0.00670762
0.00531949
0.00390577
0.00236137
0.00143308
-0.000607444
0.00751316
0.00772572
0.00820531
0.00849166
0.00872002
0.00895171
0.00918666
0.00942432
0.00966804
0.00992023
0.0101818
0.0104529
0.010733
0.0110208
0.0113147
0.0116112
0.0119091
0.0122037
0.0124906
0.0127648
0.0130201
0.0132496
0.0134456
0.0135991
0.0137005
0.0137392
0.0137038
0.0135823
0.0133621
0.0130307
0.0125763
0.0119872
0.011238
0.0103568
0.00932684
0.00814865
0.00684404
0.00541326
0.00396464
0.00231987
0.00144803
-0.000938299
0.00719852
0.00739838
0.00799746
0.00835052
0.00861416
0.00887421
0.00913363
0.00939099
0.0096506
0.00991624
0.0101898
0.0104721
0.010763
0.0110621
0.0113675
0.011672
0.0119827
0.0122898
0.0125895
0.012877
0.013146
0.0133896
0.0135998
0.0137676
0.0138829
0.0139351
0.0139123
0.0138022
0.0135917
0.0132678
0.012819
0.0122365
0.0114682
0.0105839
0.00954133
0.00834141
0.0070108
0.00553599
0.00405557
0.00229295
0.00149921
-0.00133051
0.00715402
0.00709223
0.00780028
0.00823931
0.00853857
0.00882589
0.0091111
0.00938956
0.00966562
0.00994456
0.0102294
0.0105215
0.0108215
0.0111291
0.011443
0.0117603
0.0120799
0.0123973
0.0127083
0.0130076
0.0132892
0.013546
0.0137697
0.0139512
0.0140804
0.014146
0.0141362
0.0140379
0.0138379
0.0135226
0.0130809
0.0125171
0.0117101
0.0108348
0.00978201
0.00856162
0.00720795
0.00568887
0.00418278
0.00227072
0.00161485
-0.00180243
0.00709906
0.00682718
0.00764203
0.00816763
0.00850143
0.00881513
0.00912685
0.00942739
0.00972029
0.0100123
0.0103076
0.0106084
0.010916
0.0112306
0.0115513
0.0118764
0.0122036
0.0125294
0.0128496
0.0131589
0.0134513
0.0137196
0.0139555
0.0141497
0.0142919
0.0143705
0.0143732
0.0142869
0.0140975
0.013791
0.0133545
0.0127777
0.0120077
0.011111
0.010047
0.00880764
0.00743392
0.00587248
0.00434763
0.00224532
0.00182247
-0.00231359
0.00714511
0.00663946
0.00754136
0.0081514
0.00851685
0.00885328
0.00919007
0.00951252
0.00982203
0.0101264
0.010431
0.0107391
0.0110524
0.0113717
0.0116969
0.0120267
0.0123589
0.0126905
0.0130172
0.013334
0.0136349
0.0139125
0.0141586
0.0143638
0.0145174
0.0146079
0.0146224
0.0145475
0.0143688
0.0140713
0.0136409
0.0130629
0.01231
0.0114038
0.0103318
0.0090755
0.00768544
0.0060854
0.0045376
0.00244317
0.00181958
-0.00242273
0.0073704
0.00658142
0.00753219
0.00821696
0.00860603
0.00895672
0.00931354
0.00965544
0.00997986
0.010295
0.0106074
0.0109207
0.0112374
0.011559
0.0118859
0.0122172
0.0125514
0.0128854
0.0132155
0.0135367
0.0138429
0.014127
0.0143807
0.0145944
0.0147575
0.0148579
0.0148829
0.0148184
0.0146496
0.0143609
0.0139375
0.0133629
0.0126196
0.0117094
0.0106323
0.00936099
0.00795895
0.0063229
0.0047615
0.0026346
0.00188141
-0.00221014
0.0078466
0.00672798
0.00766609
0.00840069
0.008798
0.00914877
0.00951561
0.00987079
0.010206
0.0105287
0.010846
0.0111618
0.0114792
0.0118
0.0121252
0.0124547
0.0127871
0.0131199
0.0134495
0.0137713
0.0140793
0.0143664
0.0146244
0.0148436
0.0150133
0.0151213
0.0151545
0.0150986
0.0149385
0.0146578
0.0142414
0.0136716
0.0129358
0.0120239
0.0109442
0.00965954
0.00824964
0.00657968
0.00501111
0.00283186
0.00200275
-0.00200555
0.00862127
0.0071575
0.00800518
0.0087472
0.00912931
0.00946044
0.00982157
0.010179
0.010517
0.0108414
0.011159
0.0114734
0.0117876
0.0121038
0.0124236
0.0127471
0.0130735
0.0134008
0.0137256
0.0140437
0.0143491
0.0146351
0.0148934
0.0151144
0.0152872
0.0153995
0.0154382
0.0153885
0.0152351
0.0149609
0.0145509
0.0139856
0.0132561
0.0123433
0.0112633
0.00996648
0.00855237
0.00685008
0.00527841
0.00304287
0.00215436
-0.00182437
0.00969304
0.00792888
0.00861045
0.00930423
0.00964149
0.00992942
0.0102639
0.010607
0.0109356
0.0112524
0.0115627
0.0118696
0.0121753
0.012482
0.0127913
0.013104
0.0134195
0.0137363
0.0140513
0.0143606
0.0146586
0.0149387
0.0151926
0.0154108
0.0155825
0.0156954
0.015736
0.0156892
0.0155399
0.0152699
0.0148648
0.0143031
0.0135787
0.0126649
0.011586
0.0102775
0.00886219
0.00712862
0.00555683
0.00326339
0.00232392
-0.0016436
0.0110071
0.00905621
0.00952343
0.010113
0.0103754
0.0105965
0.0108804
0.0111878
0.0114901
0.0117859
0.0120784
0.0123688
0.0126584
0.0129488
0.0132416
0.0135374
0.0138361
0.0141364
0.0144359
0.0147306
0.0150155
0.0152839
0.0155281
0.0157384
0.0159041
0.0160128
0.016051
0.0160033
0.0158547
0.0155859
0.0151834
0.0146231
0.0139024
0.0129864
0.0119093
0.010589
0.00917467
0.00741026
0.00584046
0.00348776
0.00250377
-0.00146059
0.0124894
0.0105097
0.0107528
0.0111972
0.0113636
0.0114997
0.0117093
0.0119572
0.012213
0.0124711
0.0127314
0.0129934
0.0132567
0.013522
0.01379
0.0140615
0.0143362
0.0146132
0.0148902
0.0151637
0.0154289
0.0156794
0.0159075
0.0161039
0.016258
0.016357
0.0163879
0.0163346
0.0161824
0.015911
0.015508
0.0149463
0.0142271
0.0133071
0.0122315
0.0108984
0.00948625
0.00769073
0.00612413
0.00371116
0.00268657
-0.00128061
0.0141078
0.0122446
0.0122774
0.0125599
0.0126255
0.0126671
0.0127828
0.0129491
0.0131377
0.0133388
0.0135499
0.0137685
0.0139928
0.0142216
0.0144549
0.0146928
0.014935
0.0151804
0.015427
0.0156716
0.0159095
0.0161348
0.01634
0.0165157
0.0166515
0.0167348
0.0167525
0.0166881
0.0165275
0.0162489
0.0158414
0.0152744
0.014554
0.0136271
0.0125519
0.0112042
0.00979443
0.00796677
0.00640366
0.00392971
0.00286581
-0.00110813
0.0159043
0.0142329
0.0140693
0.0141946
0.0141683
0.0141131
0.0141218
0.0141897
0.0142926
0.0144178
0.0145612
0.0147198
0.0148899
0.0150689
0.0152555
0.0154489
0.0156485
0.0158529
0.0160602
0.0162671
0.0164695
0.0166615
0.0168357
0.0169832
0.0170936
0.0171541
0.017152
0.0170704
0.0168956
0.0166042
0.0161877
0.0156108
0.0148856
0.0139481
0.0128712
0.0115061
0.0100979
0.00823639
0.00667595
0.00414071
0.00303645
-0.000945986
0.0179599
0.0164713
0.0161138
0.0160986
0.0159922
0.0158389
0.0157339
0.0156939
0.0156973
0.0157295
0.0157878
0.0158696
0.0159697
0.0160842
0.0162107
0.0163476
0.0164933
0.0166463
0.0168042
0.0169641
0.0171218
0.0172715
0.0174063
0.0175172
0.0175941
0.0176242
0.0175951
0.017489
0.0172935
0.0169832
0.016552
0.0159598
0.0152253
0.0142727
0.0131911
0.0118051
0.0103965
0.00849885
0.00693904
0.00434276
0.00319509
-0.000795733
0.0203272
0.0189585
0.0184125
0.0182776
0.018092
0.0178348
0.0176153
0.0174646
0.0173593
0.0172858
0.017245
0.0172349
0.0172499
0.0172852
0.017338
0.0174055
0.0174855
0.0175758
0.0176738
0.0177765
0.0178796
0.0179776
0.0180637
0.0181289
0.0181637
0.0181548
0.0180906
0.0179523
0.017729
0.0173926
0.0169405
0.0163267
0.0155777
0.0146047
0.0135142
0.0121033
0.010691
0.00875459
0.00719199
0.00453567
0.00333994
-0.000657575
0.0229831
0.0216754
0.0209794
0.0207422
0.020459
0.0200868
0.0197545
0.019492
0.0192715
0.0190843
0.0189347
0.0188209
0.0187376
0.0186805
0.0186464
0.0186319
0.0186342
0.0186505
0.0186779
0.018713
0.0187515
0.0187881
0.018816
0.0188264
0.01881
0.0187535
0.0186458
0.0184672
0.0182084
0.0178386
0.0173587
0.0167167
0.0159473
0.0149481
0.0138439
0.0124033
0.0109833
0.00900533
0.00743504
0.00472063
0.00347083
-0.00053032
0.0257686
0.0245501
0.0238104
0.0234872
0.023079
0.0225807
0.0221326
0.0217503
0.0214063
0.0210991
0.0208337
0.0206077
0.0204167
0.0202574
0.0201264
0.0200199
0.0199347
0.0198675
0.0198152
0.019774
0.0197395
0.0197062
0.0196677
0.0196151
0.0195395
0.0194272
0.019268
0.0190412
0.0187391
0.0183283
0.0178136
0.0171365
0.0163403
0.0153089
0.0141855
0.0127104
0.0112773
0.00925528
0.00767058
0.00490108
0.00358959
-0.000411213
0.0283121
0.0273351
0.0267399
0.0264061
0.0259093
0.0253189
0.02477
0.0242687
0.0238003
0.0233713
0.0229858
0.0226417
0.0223362
0.0220667
0.0218297
0.0216217
0.021439
0.0212783
0.0211359
0.0210079
0.0208898
0.020776
0.0206603
0.0205337
0.0203878
0.0202085
0.0199867
0.0197004
0.0193442
0.0188817
0.0183224
0.0176007
0.0167692
0.0156975
0.0145473
0.0130316
0.0115781
0.00950904
0.00790122
0.0050802
0.00369936
-0.000297271
0.0307329
0.0300121
0.0297108
0.0294985
0.0290346
0.0284497
0.027855
0.0272634
0.0266843
0.0261329
0.0256166
0.0251379
0.024698
0.0242958
0.0239291
0.0235951
0.0232905
0.0230118
0.0227555
0.0225172
0.0222927
0.022076
0.0218612
0.0216391
0.0214023
0.0211362
0.020833
0.0204693
0.0200422
0.0195117
0.0188922
0.0181111
0.0172308
0.0161066
0.0149186
0.0133538
0.0118717
0.00975202
0.0081153
0.00524564
0.00379872
-0.000193144
0.0354678
0.033691
0.0328447
0.032212
0.0315272
0.0308214
0.0301307
0.0294579
0.0288055
0.0281797
0.0275856
0.027027
0.0265057
0.0260212
0.0255721
0.0251559
0.0247698
0.0244106
0.0240746
0.0237578
0.0234557
0.0231626
0.0228727
0.0225768
0.0222681
0.0219314
0.0215605
0.0211304
0.020641
0.0200493
0.0193751
0.0185391
0.0176131
0.0164402
0.0152167
0.0136075
0.0120996
0.00993703
0.00827685
0.00536786
0.00387313
-0.000117236
0.0389929
0.0370314
0.0360033
0.035264
0.034481
0.0336603
0.0328574
0.0320856
0.0313399
0.0306195
0.0299285
0.029271
0.028649
0.0280625
0.0275105
0.0269913
0.0265024
0.0260411
0.0256041
0.0251874
0.0247869
0.0243967
0.0240117
0.0236224
0.0232228
0.0227974
0.0223413
0.0218287
0.0212615
0.0205953
0.0198529
0.018952
0.0179694
0.0167425
0.0154747
0.0138228
0.0122806
0.0100868
0.008391
0.00547011
0.00390717
-4.70476e-05
0.0422914
0.0401645
0.0391804
0.0384482
0.0375964
0.0366714
0.0357651
0.0348983
0.0340597
0.0332439
0.0324544
0.0316957
0.0309702
0.0302781
0.029619
0.0289916
0.0283941
0.027824
0.0272785
0.0267538
0.0262463
0.02575
0.0252603
0.0247677
0.0242668
0.0237424
0.0231902
0.0225847
0.0219291
0.0211784
0.0203576
0.0193834
0.018335
0.0170483
0.0157283
0.0140319
0.0124479
0.0102279
0.00848664
0.00556934
0.00392229
3.86723e-05
0.0456216
0.0434067
0.0424633
0.0417243
0.040798
0.0397721
0.0387668
0.0378073
0.0368772
0.0359675
0.0350807
0.0342219
0.0333938
0.0325969
0.0318311
0.0310955
0.0303888
0.0297089
0.0290535
0.0284188
0.0278016
0.0271963
0.0265983
0.0259985
0.0253922
0.0247641
0.024111
0.0234074
0.0226579
0.0218174
0.0209125
0.0198595
0.0187394
0.0173878
0.0160095
0.0142648
0.0126321
0.0103845
0.0085897
0.00567961
0.00393852
0.000143913
0.0491552
0.0468122
0.0458396
0.0450711
0.0440763
0.0429589
0.0418593
0.0408087
0.0397881
0.0387853
0.0378024
0.0368445
0.0359147
0.0350138
0.0341417
0.0332981
0.0324821
0.0316918
0.0309253
0.0301791
0.0294504
0.0287335
0.0280246
0.0273147
0.0265995
0.0258641
0.0251062
0.0243003
0.0234524
0.0225173
0.0215233
0.0203868
0.0191894
0.0177683
0.0163254
0.0145284
0.0128398
0.0105626
0.00870565
0.00580503
0.00396078
0.000266836
0.0528464
0.0503454
0.0492978
0.0484833
0.0474255
0.0462245
0.0450343
0.0438936
0.0427833
0.0416888
0.0406109
0.0395552
0.0385248
0.0375209
0.0365436
0.0355926
0.0346674
0.0337665
0.0328882
0.0320296
0.0311878
0.0303577
0.0295357
0.0287131
0.0278861
0.0270401
0.0261738
0.0252619
0.0243114
0.0232775
0.0221896
0.0209649
0.0196848
0.0181897
0.0166759
0.0148231
0.0130712
0.0107629
0.00883509
0.00594659
0.00399053
0.000404868
0.0566139
0.0539815
0.0528377
0.0519601
0.0508379
0.0495571
0.0482782
0.047048
0.0458485
0.0446632
0.0434917
0.0423394
0.04121
0.0401044
0.039023
0.0379657
0.0369322
0.0359212
0.0349315
0.0339601
0.0330048
0.0320605
0.0311241
0.030187
0.0292463
0.0282875
0.02731
0.026289
0.0252324
0.0240963
0.0229102
0.0215935
0.0202257
0.0186527
0.0170621
0.0151502
0.0133278
0.010987
0.00897995
0.00610539
0.00403011
0.000555089
0.0604377
0.0577035
0.0564521
0.0554958
0.0543045
0.0529454
0.0515796
0.0502602
0.0489718
0.0476965
0.0464326
0.045185
0.0439576
0.0427517
0.0415676
0.0404053
0.0392646
0.0381445
0.037044
0.0359604
0.0348916
0.033833
0.0327816
0.0317294
0.0306738
0.0296007
0.0285101
0.0273782
0.0262128
0.0249719
0.0236841
0.0222723
0.0208123
0.0191582
0.0174851
0.0155113
0.0136114
0.0112366
0.00914261
0.00628215
0.00408201
0.000713666
0.0643027
0.0614873
0.0601252
0.0590804
0.0578159
0.0563796
0.0549286
0.053521
0.0521441
0.0507795
0.049424
0.0480822
0.0467581
0.0454532
0.0441676
0.0429016
0.0416549
0.0404268
0.0392164
0.0380213
0.0368396
0.035667
0.0345007
0.0333333
0.0321621
0.0309741
0.0297694
0.028525
0.0272491
0.0259014
0.0245092
0.0229999
0.0214438
0.019706
0.0179453
0.0159071
0.0139234
0.0115126
0.00932494
0.00647666
0.00414796
0.000876001
0.0681867
0.0653101
0.0638411
0.0627035
0.0613632
0.0598507
0.0583165
0.0568218
0.0553572
0.053904
0.052458
0.0510232
0.0496036
0.0482008
0.046815
0.0454464
0.044095
0.04276
0.0414408
0.0401351
0.0388413
0.0375552
0.0362745
0.0349919
0.0337053
0.0324021
0.0310825
0.0297252
0.0283373
0.0268816
0.0253828
0.0237743
0.0221188
0.0202951
0.0184422
0.0163373
0.014264
0.011815
0.00952809
0.00668772
0.00422884
0.00103729
0.0720766
0.0691557
0.0675858
0.0663547
0.0649376
0.0633501
0.0617348
0.0601548
0.0586035
0.0570628
0.0555275
0.054001
0.0524871
0.0509876
0.049503
0.0480331
0.0465781
0.0451375
0.0437105
0.0422953
0.0408902
0.0394915
0.0380969
0.0366996
0.0352977
0.0338795
0.0324448
0.0309741
0.0294734
0.027909
0.0263018
0.0245929
0.0228351
0.0209238
0.0189747
0.0168009
0.0146333
0.0121428
0.00975261
0.00691345
0.00432478
0.00119307
0.075964
0.0730109
0.0713468
0.0700236
0.0685301
0.0668691
0.0651751
0.0635118
0.0618755
0.0602488
0.0586256
0.0570088
0.0554021
0.0538075
0.0522253
0.0506555
0.0490983
0.0475533
0.0460198
0.044496
0.0429807
0.0414702
0.0399624
0.0384513
0.0369344
0.0354015
0.0338518
0.0322678
0.0306537
0.02898
0.0272631
0.0254528
0.0235905
0.02159
0.0195415
0.0172963
0.0150306
0.0124945
0.0099985
0.00715156
0.0044352
0.0013397
0.0798394
0.0768639
0.0751126
0.0736999
0.0721313
0.070399
0.068629
0.066885
0.0651658
0.0634548
0.0617455
0.0600402
0.0583425
0.0566543
0.0549761
0.0533081
0.0516502
0.0500021
0.0483634
0.0467324
0.0451079
0.0434867
0.0418667
0.0402423
0.0386112
0.0369641
0.0352995
0.0336023
0.0318745
0.0300914
0.0282638
0.0263512
0.0243827
0.0222913
0.0201408
0.0178215
0.015455
0.0128681
0.0102653
0.00739965
0.00455899
0.00147468
0.0836932
0.0807049
0.0788729
0.0773736
0.0757317
0.0739307
0.0720878
0.070266
0.0684664
0.0666734
0.0648802
0.0630885
0.0613018
0.059522
0.0577498
0.0559852
0.0542283
0.0524788
0.0507364
0.0489997
0.0472673
0.0455366
0.0438053
0.0420687
0.040324
0.0385634
0.0367844
0.0349743
0.0331327
0.03124
0.0293011
0.0272853
0.0252093
0.0230253
0.020771
0.0183743
0.0159054
0.0132617
0.010552
0.00765553
0.00469467
0.00159675
0.0875156
0.0845236
0.0826171
0.0810343
0.0793215
0.0774547
0.0755424
0.0736463
0.0717692
0.0698969
0.0680224
0.0661467
0.0642734
0.0624043
0.0605402
0.0586812
0.0568273
0.0549783
0.053134
0.0512931
0.0494544
0.0476155
0.0457743
0.0439266
0.0420693
0.040196
0.0383031
0.0363806
0.0344254
0.032423
0.0303724
0.0282527
0.0260681
0.0237896
0.0214304
0.0189527
0.0163803
0.0136733
0.0108575
0.00791742
0.00484054
0.00170592
0.0912957
0.0883091
0.0863344
0.0846714
0.0828905
0.0809613
0.0789834
0.0770167
0.0750656
0.0731171
0.0711641
0.0692075
0.0672503
0.0652946
0.0633412
0.0613901
0.0594414
0.0574951
0.0555509