/*--------------------------------*- C++ -*----------------------------------*\
  =========                 |
  \\      /  F ield         | OpenFOAM: The Open Source CFD Toolbox
   \\    /   O peration     | Website:  https://openfoam.org
    \\  /    A nd           | Version:  7
     \\/     M anipulation  |
\*---------------------------------------------------------------------------*/
FoamFile
{
    version     2.0;
    format      ascii;
    class       surfaceScalarField;
    location    "30";
    object      phi;
}
// * * * * * * * * * * * * * * * * * * * * * * * * * * * * * * * * * * * * * //

dimensions      [0 3 -1 0 0 0 0];

internalField   nonuniform List<scalar> 
16429
(
-1.24973e-05
1.23051e-05
1.92195e-07
-4.02799e-05
2.7346e-05
4.36664e-07
-7.85735e-05
3.76984e-05
5.95157e-07
-0.000123984
4.47191e-05
6.91824e-07
-0.000174487
4.97464e-05
7.56384e-07
-0.000228879
5.3583e-05
8.09168e-07
-0.000286502
5.67624e-05
8.60331e-07
-0.000346936
5.95231e-05
9.10372e-07
-0.000409857
6.1968e-05
9.53758e-07
-0.00047476
6.39213e-05
9.81728e-07
-0.0005415
6.57562e-05
9.83781e-07
-0.000608817
6.63701e-05
9.46485e-07
-0.000679135
6.94588e-05
8.58852e-07
6.85444e-05
7.00846e-07
-0.00074838
-1.23898e-05
2.46949e-05
-3.99549e-05
5.4911e-05
-7.79448e-05
7.56884e-05
-0.000122971
8.97453e-05
-0.000172998
9.9773e-05
-0.000226804
0.00010739
-0.000283711
0.000113669
-0.000343273
0.000119085
-0.000405145
0.00012384
-0.000468773
0.000127549
-0.00053401
0.000130993
-0.000599346
0.000131705
-0.000667451
0.000137564
0.000134366
-0.000733273
-1.21763e-05
3.68711e-05
-3.93077e-05
8.20425e-05
-7.6692e-05
0.000113073
-0.00012095
0.000134003
-0.000170025
0.000148848
-0.000222661
0.000160026
-0.000278134
0.000169142
-0.00033595
0.000176901
-0.000395719
0.00018361
-0.00045679
0.000188619
-0.000519022
0.000193226
-0.000580391
0.000193074
-0.000644112
0.000201286
0.000193368
-0.000703114
-1.18613e-05
4.87324e-05
-3.83507e-05
0.000108532
-7.48348e-05
0.000149557
-0.000117949
0.000177117
-0.000165602
0.000196502
-0.000216487
0.00021091
-0.000269812
0.000222467
-0.000325006
0.000232096
-0.000381613
0.000240216
-0.00043883
0.000245836
-0.000496554
0.00025095
-0.000551954
0.000248474
-0.000609182
0.000258513
0.000242203
-0.000658017
-1.14519e-05
6.01844e-05
-3.71014e-05
0.000134181
-7.24024e-05
0.000184858
-0.000114006
0.000218721
-0.000159778
0.000242274
-0.000208338
0.00025947
-0.000258803
0.000272932
-0.000310498
0.000283791
-0.000362873
0.000292591
-0.000414918
0.000297881
-0.000466617
0.00030265
-0.000514013
0.000295869
-0.000562697
0.000307197
0.000277589
-0.000598083
-1.09572e-05
7.11416e-05
-3.55831e-05
0.000158807
-6.94329e-05
0.000218708
-0.000109174
0.000258462
-0.000152617
0.000285717
-0.000198287
0.00030514
-0.000245186
0.000319831
-0.0002925
0.000331105
-0.00033956
0.00033965
-0.000385077
0.000343398
-0.000429204
0.000346777
-0.000466491
0.000333157
-0.000504592
0.000345298
0.000296331
-0.000523334
-1.03882e-05
8.15298e-05
-3.38239e-05
0.000182243
-6.59726e-05
0.000250856
-0.000103516
0.000296005
-0.000144196
0.000326397
-0.000186423
0.000347367
-0.000229055
0.000362463
-0.000271101
0.000373151
-0.00031174
0.000380289
-0.000349325
0.000380982
-0.000384266
0.000381719
-0.000409249
0.000358139
-0.000434606
0.000370655
0.00029534
-0.000433615
-9.75733e-06
9.12871e-05
-3.18561e-05
0.000204342
-6.20746e-05
0.000281075
-9.71046e-05
0.000331035
-0.000134604
0.000363896
-0.000172848
0.000385611
-0.000210516
0.000400132
-0.000246401
0.000409036
-0.000279488
0.000413376
-0.000307671
0.000409166
-0.000331694
0.000405741
-0.000342073
0.000368518
-0.000352169
0.000380751
0.00027168
-0.000328508
-9.07868e-06
0.000100366
-2.97156e-05
0.000224979
-5.77984e-05
0.000309158
-9.00208e-05
0.000363257
-0.000123942
0.000397817
-0.000157674
0.000419344
-0.000189687
0.000432144
-0.000218505
0.000437854
-0.00024287
0.000437742
-0.000260114
0.00042641
-0.000271291
0.000416919
-0.000264697
0.000361924
-0.000256284
0.000372338
0.000222689
-0.000207294
-8.36714e-06
0.000108733
-2.74406e-05
0.000244052
-5.32075e-05
0.000334924
-8.23512e-05
0.000392401
-0.000112314
0.000427779
-0.00014102
0.00044805
-0.000166686
0.000457811
-0.000187517
0.000458685
-0.00020194
0.000452164
-0.000206639
0.000431109
-0.000202746
0.000413026
-0.000176886
0.000336064
-0.000145301
0.000340753
0.000146864
-6.94756e-05
-7.6382e-06
0.000116371
-2.50713e-05
0.000261485
-4.83678e-05
0.000358221
-7.41854e-05
0.000418219
-9.9828e-05
0.000453422
-0.000123002
0.000471224
-0.000141627
0.000476436
-0.000153526
0.000470583
-0.000156716
0.000455354
-0.000147208
0.0004216
-0.00012553
0.000391348
-7.88587e-05
0.000289393
-1.47057e-05
0.0002766
4.31013e-05
8.90574e-05
-6.90754e-06
0.000123279
-2.26477e-05
0.000277225
-4.33459e-05
0.000378919
-6.56125e-05
0.000440485
-8.65899e-05
0.000474399
-0.000103731
0.000488365
-0.000114606
0.000487311
-0.000116586
0.000472564
-0.00010716
0.000445928
-8.18181e-05
0.000396259
-3.82914e-05
0.000347821
3.03887e-05
0.000220713
0.000123043
0.000183946
-0.000104924
0.000271068
-6.19046e-06
0.000129469
-2.02091e-05
0.000291244
-3.82057e-05
0.000396916
-5.67171e-05
0.000458997
-7.26953e-05
0.000490378
-8.32983e-05
0.000498968
-8.56849e-05
0.000489698
-7.66915e-05
0.00046357
-5.30615e-05
0.000422298
-1.11504e-05
0.000354347
5.69257e-05
0.000279745
0.000157916
0.000119723
0.000281161
6.07012e-05
-0.000301275
0.000477512
-5.50145e-06
0.000134971
-1.77921e-05
0.000303535
-3.30063e-05
0.00041213
-4.75744e-05
0.000473565
-5.8223e-05
0.000501026
-6.17664e-05
0.000502512
-5.488e-05
0.000482811
-3.37879e-05
0.000442478
6.35123e-06
0.000382159
6.8757e-05
0.000291942
0.000161515
0.000186987
0.000297947
-1.67093e-05
0.000460544
-0.000101896
-0.000552312
0.000711582
-4.85357e-06
0.000139824
-1.54291e-05
0.00031411
-2.77984e-05
0.000424499
-3.82449e-05
0.000484012
-4.32267e-05
0.000506008
-3.91538e-05
0.000498439
-2.21255e-05
0.000465783
1.22466e-05
0.000408106
6.96694e-05
0.000324736
0.000155697
0.000205914
0.000278406
6.42781e-05
0.000453062
-0.000191366
0.000662549
-0.000311382
-0.000865107
0.000975344
-4.25796e-06
0.000144082
-1.31467e-05
0.000322999
-2.26212e-05
0.000433974
-2.87686e-05
0.000490159
-2.77246e-05
0.000504964
-1.54207e-05
0.000486135
1.27382e-05
0.000437624
6.20894e-05
0.000358755
0.000139299
0.000247527
0.000251005
9.42078e-05
0.000408707
-9.34237e-05
0.000625015
-0.000407674
0.000888634
-0.000575001
-0.00124582
0.00126934
-3.72325e-06
0.000147805
-1.09639e-05
0.00033024
-1.74984e-05
0.000440508
-1.9158e-05
0.000491819
-1.1689e-05
0.000497495
9.54952e-06
0.000464896
4.99572e-05
0.000397216
0.000115939
0.000292774
0.000215682
0.000147784
0.000356168
-4.62789e-05
0.00055402
-0.000291275
0.000815682
-0.000669337
0.00113986
-0.000899178
-0.00169763
0.00159167
-3.25501e-06
0.00015106
-8.8904e-06
0.000335875
-1.24349e-05
0.000444053
-9.39239e-06
0.000488776
4.96444e-06
0.000483138
3.59695e-05
0.000433891
8.99819e-05
0.000343204
0.000174613
0.000208142
0.00029992
2.24774e-05
0.000472914
-0.000219273
0.000715885
-0.000534246
0.0010268
-0.00098025
0.00141633
-0.00128872
-0.00221842
0.00193712
-2.85531e-06
0.000153916
-6.92483e-06
0.000339944
-7.41323e-06
0.000444541
5.94045e-07
0.000480769
2.23869e-05
0.000461345
6.41485e-05
0.00039213
0.000133381
0.000273971
0.000239064
0.000102459
0.000393321
-0.000131779
0.000603203
-0.000429156
0.000895418
-0.00082646
0.0012592
-0.00134403
0.00171621
-0.00174572
-0.00279887
0.00229666
-2.52224e-06
0.000156438
-5.05335e-06
0.000342476
-2.39097e-06
0.000441879
1.08921e-05
0.000467486
4.08044e-05
0.000431433
9.45198e-05
0.000338414
0.000180894
0.000187598
0.000310438
-2.70851e-05
0.000497273
-0.000318615
0.000748905
-0.000680788
0.00109294
-0.00117049
0.00151182
-0.00176292
0.00203434
-0.00226825
-0.00342223
0.0026577
-2.2496e-06
-3.24804e-06
0.000343474
2.70341e-06
0.000435927
2.16737e-05
0.000448516
6.05258e-05
0.000392581
0.000127635
0.000271305
0.00023341
8.18228e-05
0.000390017
-0.000183691
0.0006131
-0.000541699
0.000911215
-0.000978902
0.00130753
-0.0015668
0.00178074
-0.00223613
0.00236125
-0.00284876
-0.00406617
0.00300519
-1.46328e-06
0.000342911
7.97063e-06
0.000426493
3.31423e-05
0.000423344
8.19423e-05
0.000343781
0.000164161
0.000189087
0.000291934
-4.59506e-05
0.000479101
-0.000370858
0.000741861
-0.000804458
0.00108998
-0.00132702
0.00153645
-0.00201328
0.00205877
-0.00275845
0.00268318
-0.00347318
-0.0047065
0.00332351
3.63546e-07
0.000340708
1.35407e-05
0.000413316
4.5559e-05
0.000391326
0.000105524
0.000283816
0.000204855
8.97559e-05
0.000357514
-0.00019861
0.000578815
-0.00059216
0.000884062
-0.00110971
0.00128315
-0.00172611
0.0017746
-0.00250473
0.00233582
-0.00331966
0.00298388
-0.00412124
-0.00532132
0.0035987
2.23373e-06
0.000336804
1.95707e-05
0.000395979
5.92337e-05
0.000351663
0.000131808
0.000211242
0.000250533
-2.8969e-05
0.000431143
-0.00037922
0.000689853
-0.000850869
0.00103923
-0.00145909
0.00148661
-0.00217349
0.00201436
-0.00303248
0.00259993
-0.00390523
0.00324772
-0.00476902
-0.00589414
0.00382053
4.30908e-06
2.62486e-05
0.00037404
7.45181e-05
0.000303393
0.00016138
0.00012438
0.000302013
-0.000169602
0.000513624
-0.000590831
0.000812196
-0.00114944
0.00120544
-0.00185233
0.00169429
-0.00266233
0.00224625
-0.00358445
0.00283904
-0.00449801
0.00346287
-0.00539286
-0.00641507
0.0039838
3.37805e-05
0.000346919
9.17938e-05
0.00024538
0.00019484
2.13341e-05
0.000360032
-0.000334794
0.000605386
-0.000836186
0.000944849
-0.0014889
0.00137896
-0.00228644
0.00189862
-0.00318199
0.00246036
-0.00414619
0.00304284
-0.0050805
0.00362327
-0.00597328
-0.00688031
0.00408851
4.23869e-05
0.000313916
0.000111457
0.00017631
0.000232768
-9.99768e-05
0.00042515
-0.000527177
0.000706284
-0.00111732
0.00108563
-0.00186825
0.00155435
-0.00275516
0.00209143
-0.00371906
0.00264799
-0.00470275
0.00320433
-0.00563683
0.00372851
-0.00649747
-0.00729232
0.00414052
5.2295e-05
0.000274207
0.000133898
9.47064e-05
0.000275669
-0.000241748
0.000497628
-0.000749136
0.000815391
-0.00143508
0.00123112
-0.00228399
0.00172506
-0.0032491
0.00226503
-0.00425903
0.00280287
-0.00524058
0.00332051
-0.00615448
0.00378263
-0.00695959
-0.0076679
0.00415822
6.37291e-05
0.000159481
-1.0456e-06
0.000323917
-0.000406184
0.000577294
-0.00100251
0.000930858
-0.00178865
0.00137681
-0.00272994
0.0018843
-0.00375659
0.00241338
-0.00478811
0.0029216
-0.00574881
0.00339262
-0.00662551
0.00379897
-0.00736593
-0.00805386
0.00418492
0.000188516
-0.00011266
0.000377686
-0.000595354
0.000663421
-0.00128825
0.0010499
-0.00217512
0.00151752
-0.00319756
0.00202605
-0.00426512
0.00253266
-0.00529472
0.00300357
-0.00621972
0.0034252
-0.00704714
0.00379428
-0.007735
-0.00839739
0.00413782
0.000221231
0.000436874
-0.000810997
0.000754643
-0.00160602
0.00116895
-0.00258943
0.00164809
-0.00367669
0.00214581
-0.00476284
0.00262142
-0.00577032
0.00305078
-0.00664908
0.00342723
-0.00742359
0.00375809
-0.00806586
-0.00870098
0.00406168
0.000501035
-0.00105429
0.000848939
-0.00195392
0.00128403
-0.00302452
0.001764
-0.00415666
0.00224097
-0.00523982
0.0026802
-0.00620955
0.00306749
-0.00703637
0.00340286
-0.00775896
0.00370013
-0.00836313
-0.00897597
0.00397512
0.000569319
-0.00132557
0.000943743
-0.00232834
0.00139117
-0.00347195
0.00186191
-0.00462741
0.00231074
-0.00568865
0.00271121
-0.00661002
0.00305818
-0.00738335
0.00335741
-0.00805819
0.00362616
-0.00863188
-0.00922708
0.00387727
0.000640451
0.00103615
-0.00272404
0.00148692
-0.00392272
0.00193986
-0.00508035
0.00235583
-0.00610462
0.00271751
-0.0069717
0.00302739
-0.00769322
0.00329546
-0.00832625
0.00354011
-0.00887654
-0.00945882
0.00377185
0.00112322
-0.0031345
0.00156862
-0.00436812
0.0019972
-0.00550893
0.00237804
-0.00648545
0.0027026
-0.00729626
0.0029793
-0.00796992
0.0032208
-0.00856775
0.00344522
-0.00910096
-0.00967437
0.00366077
0.00120228
0.00163464
-0.00480048
0.00203441
-0.00590871
0.00237977
-0.00683081
0.00266994
-0.00758644
0.00291753
-0.00821751
0.0031365
-0.00878672
0.00334377
-0.00930822
-0.00987596
0.00354535
0.00168426
0.00205275
-0.00627719
0.00236372
-0.00714178
0.00262276
-0.00784548
0.00284511
-0.00843986
0.00304494
-0.00898655
0.00323742
-0.0095007
-0.0100652
0.00342662
0.00205396
-0.00661351
0.00233257
-0.00742039
0.0025639
-0.00807681
0.00276449
-0.00864045
0.00294791
-0.00916997
0.00312736
-0.00968014
-0.010243
0.00330523
0.00204005
0.00228887
-0.00766921
0.00249578
-0.00828372
0.0026776
-0.00882227
0.00284675
-0.00933912
0.00301443
-0.00984782
-0.0104103
0.00318167
0.00223489
0.00242042
-0.00846925
0.00258595
-0.0089878
0.00274246
-0.00949563
0.00289924
-0.0100046
-0.0105673
0.00305628
0.00233945
0.00249067
-0.00913903
0.00263573
-0.00964069
0.00278221
-0.0101511
-0.0107144
0.00292932
0.00239264
0.00252711
-0.00977517
0.00266367
-0.0102876
-0.0108517
0.002801
0.00241698
0.00254386
-0.0104145
-0.0109794
0.00267149
0.00242298
-0.0110973
0.00254095
0.0024095
0.0110979
0.00240952
0.00230573
0.00990023
0.00242305
0.0104151
0.01098
0.00254098
0.0022926
0.00927804
0.00241709
0.00977575
0.00254395
0.0102883
0.0108524
0.00267154
0.00239277
0.00913957
0.00252723
0.00964128
0.00266377
0.0101517
0.0107151
0.00280106
0.00233962
0.00846983
0.00249082
0.00898836
0.00263587
0.00949623
0.00278233
0.0100053
0.0105681
0.0029294
0.00223511
0.00766987
0.00242062
0.00828433
0.00258612
0.00882286
0.00274261
0.00933974
0.00289937
0.00984852
0.0104111
0.00305637
0.00204031
0.00661421
0.00228912
0.00742106
0.002496
0.00807745
0.00267779
0.00864107
0.00284692
0.00917061
0.00301458
0.00968086
0.0102439
0.00318179
0.00205425
0.00627787
0.00233285
0.00714246
0.00256414
0.00784615
0.00276471
0.00844051
0.0029481
0.00898722
0.00312753
0.00950143
0.010066
0.00330537
0.00168455
0.00480104
0.00205305
0.00590937
0.00236402
0.0068315
0.00262304
0.00758713
0.00284536
0.00821819
0.00304516
0.00878742
0.00323761
0.00930898
0.00987685
0.00342678
0.0012025
0.00313482
0.00163493
0.00436862
0.00203474
0.00550955
0.0023801
0.00648614
0.00267026
0.00729697
0.00291782
0.00797063
0.00313675
0.00856848
0.00334399
0.00910174
0.0096753
0.00354554
0.00112344
0.00272428
0.00156892
0.00392314
0.00199755
0.00508092
0.0023784
0.00610529
0.00270296
0.00697241
0.00297963
0.00769396
0.00322109
0.00832702
0.00344547
0.00887736
0.0094598
0.00366098
0.000640567
0.00132556
0.00103635
0.0023285
0.00148721
0.00347229
0.00194021
0.00462791
0.00235622
0.00568928
0.00271791
0.00661073
0.00302776
0.0073841
0.00329579
0.008059
0.0035404
0.00863274
0.0092281
0.0037721
0.000569422
0.00105421
0.000943932
0.00195399
0.00139145
0.00302477
0.00186228
0.00415709
0.00231116
0.0052404
0.00271164
0.00621025
0.0030586
0.00703714
0.00335779
0.00775981
0.0036265
0.00836403
0.00897705
0.00387755
0.000257784
0.00024171
0.000501127
0.00081087
0.000849113
0.001606
0.0012843
0.00258958
0.00176437
0.00367703
0.00224141
0.00476335
0.00268067
0.00577099
0.00306796
0.00664985
0.00340329
0.00742447
0.00370052
0.00806681
0.00870212
0.00397544
0.000221267
0.000112456
0.000436959
0.000595178
0.000754803
0.00128816
0.00116921
0.00217517
0.00164845
0.00319779
0.00214626
0.00426554
0.00262192
0.00529533
0.0030513
0.00622047
0.00342773
0.00704804
0.00375855
0.00773599
0.00839862
0.00406206
0.000188554
8.16281e-07
0.000377768
0.000405965
0.000663572
0.00100235
0.00105014
0.0017886
0.00151787
0.00273006
0.00202651
0.00375691
0.0025332
0.00478864
0.00300415
0.00574952
0.00342577
0.00662642
0.00379481
0.00736695
0.00805517
0.00413826
6.37476e-05
-0.000274417
0.000159525
-9.49609e-05
0.000324001
0.000241488
0.000577439
0.000748914
0.000931091
0.00143495
0.00137715
0.002284
0.00188476
0.0032493
0.00241394
0.00425946
0.00292222
0.00524123
0.00339326
0.00615539
0.00379958
0.00696063
0.0076693
0.00418545
5.23205e-05
-0.000314143
0.00013395
-0.000176591
0.00027576
9.9679e-05
0.000497775
0.000526899
0.000815618
0.00111711
0.00123146
0.00186816
0.00172552
0.00275524
0.00226561
0.00371938
0.00280354
0.0047033
0.00332122
0.0056377
0.00378333
0.00649851
0.00729371
0.00415892
4.24209e-05
-0.000347167
0.00011152
-0.00024569
0.000232869
-2.16704e-05
0.000425304
0.000334464
0.000706511
0.000835899
0.00108596
0.00148871
0.00155481
0.00228639
0.00209201
0.00318217
0.0026487
0.00414661
0.00320511
0.00508129
0.00372931
0.00597431
0.00688169
0.00414133
6.67865e-06
-0.000331171
3.3824e-05
-0.000374312
9.18698e-05
-0.000303736
0.000194956
-0.000124757
0.000360199
0.000169221
0.000605621
0.000590477
0.000945176
0.00114915
0.0013794
0.00185217
0.00189921
0.00266237
0.00246109
0.00358473
0.00304369
0.0044987
0.00362416
0.00539383
0.00641643
0.00408942
4.33378e-06
-0.000336993
2.63023e-05
-0.000396281
7.46084e-05
-0.000352042
0.000161513
-0.000211661
0.000302197
2.85371e-05
0.000513873
0.000378801
0.000812531
0.000850494
0.00120589
0.00145881
0.00169488
0.00217338
0.002247
0.0030326
0.00283993
0.00390578
0.00346386
0.0047699
0.00589548
0.00398482
2.26428e-06
-0.000340919
1.96348e-05
-0.000413651
5.93391e-05
-0.000391746
0.000131961
-0.000284283
0.000250739
-9.02414e-05
0.000431413
0.000198127
0.000690203
0.000591704
0.00103969
0.00110932
0.00148721
0.00172586
0.00201512
0.00250469
0.00260086
0.00332004
0.00324879
0.00412197
0.0053226
0.00382167
3.98316e-07
-0.000343146
1.3615e-05
-0.000426868
4.56792e-05
-0.00042381
0.000105696
-0.000344299
0.000205083
-0.000189629
0.000357808
4.54027e-05
0.000579188
0.000370324
0.000884535
0.000803976
0.00128376
0.00132664
0.00177537
0.00201307
0.00233677
0.00275864
0.00298503
0.00347371
0.00470767
0.00359995
-1.42078e-06
-0.00034374
8.05463e-06
-0.000436343
3.32766e-05
-0.000449032
8.21326e-05
-0.000393155
0.000164412
-0.000271909
0.000292254
-8.24393e-05
0.0004795
0.000183077
0.000742358
0.000541118
0.0010906
0.0009784
0.00153723
0.00156644
0.00205975
0.00223612
0.00268438
0.00284908
0.00406719
0.00332486
-2.23537e-06
-0.000156532
-3.20083e-06
-0.000342774
2.79611e-06
-0.00044234
2.18205e-05
-0.000468057
6.07329e-05
-0.000432067
0.000127908
-0.000339084
0.000233756
-0.000188287
0.000390444
2.63892e-05
0.000613627
0.000317935
0.000911864
0.000680163
0.00130833
0.00116998
0.00178173
0.00176271
0.00236249
0.00226833
0.00342306
0.00300662
-2.5063e-06
-0.000154026
-5.00181e-06
-0.000340279
-2.29082e-06
-0.000445051
1.10496e-05
-0.000481397
4.10256e-05
-0.000462043
9.48106e-05
-0.000392869
0.000181261
-0.000274738
0.000310891
-0.000103241
0.000497829
0.000130997
0.000749581
0.000428411
0.00109377
0.000825792
0.00151284
0.00134364
0.0020356
0.00174557
0.00279946
0.0026592
-2.83791e-06
-0.000151188
-6.86965e-06
-0.000336247
-7.30706e-06
-0.000444614
7.59135e-07
-0.000489463
2.2619e-05
-0.000483903
6.44534e-05
-0.000434704
0.000133766
-0.00034405
0.000239539
-0.000209014
0.000393901
-2.33649e-05
0.000603905
0.000218408
0.00089627
0.000533427
0.00126024
0.000979665
0.00171748
0.00128833
0.00221873
0.00229821
-3.23642e-06
-0.000147951
-8.83237e-06
-0.000330651
-1.23242e-05
-0.000441122
-9.22047e-06
-0.000492567
5.20408e-06
-0.000498328
3.62839e-05
-0.000465783
9.03793e-05
-0.000398146
0.000175103
-0.000293738
0.000300518
-0.00014878
0.000473635
4.52911e-05
0.000716755
0.000290307
0.00102785
0.000668568
0.00141761
0.000898569
0.00169765
0.00193869
-3.70376e-06
-0.000144248
-1.09039e-05
-0.000323451
-1.73848e-05
-0.000434641
-1.89827e-05
-0.000490969
-1.14456e-05
-0.000505865
9.86842e-06
-0.000487097
5.036e-05
-0.000438637
0.000116436
-0.000359813
0.000216288
-0.000248632
0.000356899
-9.53196e-05
0.000554896
9.23089e-05
0.000816739
0.000406725
0.00114113
0.00057418
0.00124555
0.00159324
-4.23788e-06
-0.00014001
-1.30855e-05
-0.000314603
-2.25064e-05
-0.00042522
-2.85925e-05
-0.000484883
-2.7481e-05
-0.000506977
-1.51025e-05
-0.000499476
1.31394e-05
-0.000466879
6.25847e-05
-0.000409259
0.000139902
-0.00032595
0.000251733
-0.00020715
0.000409574
-6.55321e-05
0.000626056
0.000190243
0.000889873
0.000310362
0.000864559
0.00127086
-4.8332e-06
-0.000135177
-1.53677e-05
-0.000304069
-2.7684e-05
-0.000412904
-3.80705e-05
-0.000474497
-4.29863e-05
-0.000502061
-3.88407e-05
-0.000503621
-2.17312e-05
-0.000483989
1.27352e-05
-0.000443725
7.02593e-05
-0.000383474
0.000156408
-0.000293299
0.000279245
-0.000188369
0.000454067
1.54208e-05
0.000663733
0.000100696
0.000551512
0.000976779
-5.48109e-06
-0.000129696
-1.77313e-05
-0.000291818
-3.28938e-05
-0.000397741
-4.74039e-05
-0.000459987
-5.79891e-05
-0.000491476
-6.14628e-05
-0.000500148
-5.44991e-05
-0.000490952
-3.33224e-05
-0.000464902
6.89874e-06
-0.000423695
6.94426e-05
-0.000355842
0.000162308
-0.000281234
0.000298895
-0.000121166
0.000461643
-6.20521e-05
0.000300257
0.000712899
-6.17041e-06
-0.000123525
-2.01497e-05
-0.000277839
-3.80965e-05
-0.000379794
-5.65526e-05
-0.000441531
-7.24706e-05
-0.000475557
-8.30079e-05
-0.00048961
-8.53222e-05
-0.000488638
-7.62484e-05
-0.000473976
-5.25241e-05
-0.000447419
-1.05435e-05
-0.000397823
5.76513e-05
-0.000349429
0.000158791
-0.000222305
0.00028215
-0.000185412
0.000103724
0.000478683
-6.88806e-06
-0.000116637
-2.25905e-05
-0.000262137
-4.32414e-05
-0.000359143
-6.54558e-05
-0.000419316
-8.6377e-05
-0.000454636
-0.000103457
-0.00047253
-0.000114265
-0.00047783
-0.000116172
-0.000472069
-0.000106663
-0.000456928
-8.12348e-05
-0.000423252
-3.75944e-05
-0.000393069
3.12036e-05
-0.000291103
0.000123901
-0.000278109
-4.44576e-05
0.000272082
-7.61957e-06
-0.000109017
-2.50169e-05
-0.000244739
-4.82691e-05
-0.000335891
-7.40382e-05
-0.000393547
-9.96289e-05
-0.000429046
-0.000122747
-0.000449412
-0.000141312
-0.000459265
-0.000153144
-0.000460236
-0.000156263
-0.00045381
-0.000146679
-0.000432835
-0.000124924
-0.000414824
-7.81961e-05
-0.000337831
-1.38672e-05
-0.000342438
-0.000148244
8.99197e-05
-8.34957e-06
-0.000100668
-2.73897e-05
-0.000225699
-5.31155e-05
-0.000310165
-8.22148e-05
-0.000364448
-0.00011213
-0.00039913
-0.000140786
-0.000420756
-0.000166398
-0.000433653
-0.000187171
-0.000439463
-0.000201533
-0.000439448
-0.00020617
-0.000428199
-0.00020222
-0.000418774
-0.000176307
-0.000363744
-0.000144662
-0.000374082
-0.000224109
-6.87978e-05
-9.0624e-06
-9.16055e-05
-2.96686e-05
-0.000205093
-5.77141e-05
-0.00028212
-8.98963e-05
-0.000332266
-0.000123775
-0.000365252
-0.000157463
-0.000387068
-0.000189428
-0.000401688
-0.000218197
-0.000410694
-0.000242511
-0.000415134
-0.000259705
-0.000411004
-0.000270841
-0.000407638
-0.000264209
-0.000370376
-0.000255769
-0.000382522
-0.000273129
-0.000206749
-9.74253e-06
-8.1863e-05
-3.18136e-05
-0.000183022
-6.19987e-05
-0.000251935
-9.6993e-05
-0.000297271
-0.000134455
-0.00032779
-0.00017266
-0.000348863
-0.000210288
-0.00036406
-0.000246131
-0.000374852
-0.000279176
-0.000382088
-0.000307321
-0.00038286
-0.000331315
-0.000383644
-0.000341669
-0.000360022
-0.000351759
-0.000372433
-0.000296803
-0.000328085
-1.0375e-05
-7.1488e-05
-3.37863e-05
-0.000159611
-6.59057e-05
-0.000219815
-0.000103418
-0.000259759
-0.000144066
-0.000287142
-0.00018626
-0.000306669
-0.000228857
-0.000321463
-0.000270869
-0.00033284
-0.000311475
-0.000341482
-0.00034903
-0.000345305
-0.000383953
-0.000348721
-0.000408922
-0.000335053
-0.000434285
-0.00034707
-0.000297794
-0.000433294
-1.09459e-05
-6.05421e-05
-3.55507e-05
-0.000135006
-6.93756e-05
-0.000185991
-0.00010909
-0.000220044
-0.000152506
-0.000243726
-0.000198148
-0.000261027
-0.000245019
-0.000274592
-0.000292306
-0.000285553
-0.000339339
-0.000294449
-0.000384835
-0.000299809
-0.000428951
-0.000304605
-0.000466233
-0.000297771
-0.000504345
-0.000308959
-0.000279043
-0.000523096
-1.14425e-05
-4.90997e-05
-3.70745e-05
-0.000109374
-7.2355e-05
-0.00015071
-0.000113937
-0.000178462
-0.000159687
-0.000197976
-0.000208224
-0.00021249
-0.000258667
-0.000224149
-0.00031034
-0.00023388
-0.000362696
-0.000242093
-0.000414726
-0.000247779
-0.000466419
-0.000252912
-0.000513814
-0.000250376
-0.000562511
-0.000260262
-0.000243642
-0.000597911
-1.18538e-05
-3.72458e-05
-3.83295e-05
-8.28981e-05
-7.47976e-05
-0.000114242
-0.000117895
-0.000135366
-0.000165531
-0.000150339
-0.000216399
-0.000161622
-0.000269706
-0.000170841
-0.000324885
-0.000178702
-0.000381477
-0.000185501
-0.000438684
-0.000190572
-0.000496405
-0.000195191
-0.000551808
-0.000194973
-0.000609047
-0.000203022
-0.000194793
-0.000657897
-1.21709e-05
-2.50749e-05
-3.92925e-05
-5.57764e-05
-7.66653e-05
-7.68695e-05
-0.000120911
-9.11194e-05
-0.000169974
-0.000101276
-0.000222598
-0.000108998
-0.000278059
-0.00011538
-0.000335864
-0.000120897
-0.000395624
-0.000125741
-0.000456688
-0.000129508
-0.000518919
-0.00013296
-0.00058029
-0.000133601
-0.000644021
-0.000139291
-0.000135779
-0.000703036
-1.23866e-05
-1.26884e-05
-3.99457e-05
-2.82173e-05
-7.79287e-05
-3.88864e-05
-0.000122948
-4.61003e-05
-0.000172967
-5.12568e-05
-0.000226767
-5.5199e-05
-0.000283666
-5.84807e-05
-0.000343221
-6.13417e-05
-0.000405088
-6.38738e-05
-0.000468713
-6.58837e-05
-0.000533949
-6.77236e-05
-0.000599287
-6.82639e-05
-0.000667399
-7.11787e-05
-6.99489e-05
-0.000733229
-1.24962e-05
-4.02768e-05
-7.85681e-05
-0.000123977
-0.000174477
-0.000228867
-0.000286487
-0.000346919
-0.000409838
-0.00047474
-0.00054148
-0.000608798
-0.000679118
-0.000748366
-0.000754862
6.33398e-06
1.48317e-07
-0.000761818
6.82503e-06
1.30713e-07
-0.000769027
7.09942e-06
1.09361e-07
-0.000776366
7.25591e-06
8.39151e-08
-0.000783764
7.3432e-06
5.38995e-08
-0.00079117
7.38776e-06
1.87926e-08
-0.000798556
7.40743e-06
-2.19344e-08
-0.000805901
7.41433e-06
-6.88371e-08
-0.000813196
7.41687e-06
-1.22468e-07
-0.000820433
7.42133e-06
-1.83371e-07
-0.000827614
7.43284e-06
-2.52055e-07
-0.000834741
7.45582e-06
-3.28962e-07
-0.000841821
7.49431e-06
-4.14432e-07
-0.000848864
7.5521e-06
-5.08653e-07
-0.000855886
7.63271e-06
-6.1161e-07
-0.000862902
7.73946e-06
-7.23027e-07
-0.000869935
7.87531e-06
-8.42305e-07
-0.000877009
8.04281e-06
-9.6847e-07
-0.000884153
8.24393e-06
-1.10012e-06
-0.000891398
8.47988e-06
-1.2354e-06
-0.000898777
8.75091e-06
-1.37202e-06
-0.000906325
9.05611e-06
-1.50727e-06
-0.00091408
9.39318e-06
-1.63815e-06
-0.000922077
9.75817e-06
-1.76154e-06
-0.000930348
1.01454e-05
-1.87437e-06
-0.000938921
1.05471e-05
-1.97384e-06
-0.000947817
1.09531e-05
-2.05776e-06
-0.000957042
1.135e-05
-2.12478e-06
-0.000966588
1.17211e-05
-2.17452e-06
-0.000976426
1.2045e-05
-2.20748e-06
-0.000986496
1.22951e-05
-2.22458e-06
-0.000996708
1.24377e-05
-2.22645e-06
-0.00100693
1.24303e-05
-2.21221e-06
-0.00101697
1.22192e-05
-2.17808e-06
-0.00102659
1.17384e-05
-2.11605e-06
-0.00103549
1.09098e-05
-2.01324e-06
-0.00104328
9.64395e-06
-1.85281e-06
-0.00104951
7.85517e-06
-1.61724e-06
-0.00105369
5.47034e-06
-1.29501e-06
-0.00105534
2.54428e-06
-8.91526e-07
-0.00105392
-9.6467e-07
-4.54913e-07
-3.27569e-06
-6.91907e-08
-0.000739625
1.26857e-05
-0.000746465
1.3665e-05
-0.00075357
1.42052e-05
-0.000760819
1.4505e-05
-0.000768136
1.46599e-05
-0.00077547
1.47217e-05
-0.000782789
1.47258e-05
-0.000790071
1.46966e-05
-0.000797305
1.46508e-05
-0.000804484
1.46007e-05
-0.000811608
1.45565e-05
-0.000818679
1.45266e-05
-0.000825703
1.45189e-05
-0.000832692
1.45408e-05
-0.000839658
1.45994e-05
-0.000846621
1.47017e-05
-0.0008536
1.48544e-05
-0.00086062
1.50634e-05
-0.000867711
1.53344e-05
-0.000874903
1.56718e-05
-0.000882231
1.60786e-05
-0.000889731
1.6556e-05
-0.00089744
1.71027e-05
-0.000905396
1.77143e-05
-0.000913634
1.83828e-05
-0.000922183
1.90963e-05
-0.000931067
1.9837e-05
-0.000940297
2.058e-05
-0.000949868
2.12928e-05
-0.000959756
2.19329e-05
-0.000969908
2.24468e-05
-0.000980238
2.27672e-05
-0.000990618
2.28102e-05
-0.00100087
2.24731e-05
-0.00101077
2.1632e-05
-0.00102
2.0143e-05
-0.0010282
1.78416e-05
-0.00103491
1.45698e-05
-0.00103962
1.01764e-05
-0.00104183
4.75898e-06
-0.00104089
-1.90123e-06
-6.22278e-06
-0.000709214
1.87852e-05
-0.00071583
2.0281e-05
-0.000722735
2.11108e-05
-0.000729808
2.15775e-05
-0.000736968
2.18204e-05
-0.000744162
2.1915e-05
-0.000751351
2.19149e-05
-0.000758512
2.18578e-05
-0.000765631
2.17695e-05
-0.000772699
2.16694e-05
-0.000779716
2.15727e-05
-0.000786682
2.14925e-05
-0.000793603
2.14405e-05
-0.00080049
2.14278e-05
-0.000807356
2.14654e-05
-0.000814218
2.15638e-05
-0.000821097
2.17334e-05
-0.000828018
2.19843e-05
-0.000835009
2.23255e-05
-0.000842103
2.27651e-05
-0.000849333
2.33094e-05
-0.000856739
2.39622e-05
-0.00086436
2.47237e-05
-0.000872236
2.559e-05
-0.000880405
2.65519e-05
-0.000888903
2.75939e-05
-0.000897758
2.86919e-05
-0.000906989
2.9811e-05
-0.0009166
3.0904e-05
-0.000926576
3.19089e-05
-0.000936875
3.27463e-05
-0.000947425
3.33168e-05
-0.000958111
3.34965e-05
-0.000968772
3.31342e-05
-0.000979189
3.20484e-05
-0.000989075
3.00293e-05
-0.000998066
2.68322e-05
-0.00100572
2.22202e-05
-0.00101147
1.59318e-05
-0.00101481
8.09706e-06
-0.00101485
-1.85767e-06
-8.35736e-06
-0.000663759
2.45274e-05
-0.000670056
2.65781e-05
-0.000676673
2.77284e-05
-0.00068349
2.83937e-05
-0.000690423
2.87538e-05
-0.000697413
2.89046e-05
-0.000704416
2.8918e-05
-0.000711404
2.88464e-05
-0.000718361
2.87261e-05
-0.000725275
2.8584e-05
-0.000732144
2.84411e-05
-0.000738967
2.83155e-05
-0.000745749
2.82229e-05
-0.0007525
2.81786e-05
-0.000759232
2.8197e-05
-0.000765961
2.82927e-05
-0.000772707
2.84799e-05
-0.000779495
2.87725e-05
-0.000786354
2.9184e-05
-0.000793315
2.97262e-05
-0.000800415
3.04092e-05
-0.000807693
3.12402e-05
-0.000815191
3.22222e-05
-0.000822954
3.33527e-05
-0.000831024
3.46222e-05
-0.000839444
3.60137e-05
-0.00084825
3.74984e-05
-0.000857473
3.90332e-05
-0.000867127
4.05584e-05
-0.000877212
4.19944e-05
-0.000887704
4.32382e-05
-0.000898548
4.41607e-05
-0.000909651
4.45997e-05
-0.000920874
4.43568e-05
-0.00093202
4.31941e-05
-0.000942826
4.08358e-05
-0.000952946
3.69518e-05
-0.000961946
3.12198e-05
-0.000969237
2.32231e-05
-0.000974254
1.31144e-05
-0.000975803
-3.09121e-07
-9.22923e-06
-0.000603394
2.98386e-05
-0.000609301
3.24853e-05
-0.000615559
3.39858e-05
-0.00062205
3.4885e-05
-0.000628694
3.5398e-05
-0.000635425
3.56353e-05
-0.000642194
3.56871e-05
-0.000648968
3.5621e-05
-0.000655727
3.54848e-05
-0.000662457
3.53138e-05
-0.000669151
3.51356e-05
-0.000675809
3.49733e-05
-0.000682434
3.48473e-05
-0.000689032
3.47767e-05
-0.000695615
3.478e-05
-0.000702197
3.48754e-05
-0.000708799
3.50813e-05