/*--------------------------------*- C++ -*----------------------------------*\
  =========                 |
  \\      /  F ield         | OpenFOAM: The Open Source CFD Toolbox
   \\    /   O peration     | Website:  https://openfoam.org
    \\  /    A nd           | Version:  7
     \\/     M anipulation  |
\*---------------------------------------------------------------------------*/
FoamFile
{
    version     2.0;
    format      ascii;
    class       volVectorField;
    location    "30";
    object      U;
}
// * * * * * * * * * * * * * * * * * * * * * * * * * * * * * * * * * * * * * //

dimensions      [0 1 -1 0 0 0 0];

internalField   nonuniform List<vector> 
8330
(
(-0.0027112 0.00119171 2.0324e-22)
(-0.0146251 0.00238436 7.47304e-22)
(-0.033602 0.00291349 9.87096e-22)
(-0.0527581 0.003068 -2.4097e-22)
(-0.0718265 0.00301023 -2.47284e-22)
(-0.089468 0.00284914 -5.51095e-24)
(-0.105606 0.00264137 3.76219e-22)
(-0.120112 0.00241461 7.87383e-23)
(-0.133066 0.00218073 4.57013e-22)
(-0.144435 0.00193404 5.50532e-23)
(-0.154389 0.00170005 3.67426e-22)
(-0.162603 0.00142532 3.87233e-22)
(-0.170036 0.00130118 -6.36812e-23)
(-0.175206 0.0010104 2.55697e-22)
(-0.00282383 0.00364035 1.54301e-22)
(-0.0147887 0.00729905 -2.90106e-21)
(-0.0336962 0.00893316 4.54405e-22)
(-0.0527298 0.00941901 3.16388e-22)
(-0.0716347 0.0092556 1.28087e-21)
(-0.0890851 0.00877728 -5.25729e-22)
(-0.105007 0.00815749 -4.67667e-22)
(-0.119273 0.00747966 -1.31856e-21)
(-0.131963 0.00677834 1.7214e-22)
(-0.143036 0.00603361 4.02544e-22)
(-0.152684 0.00532225 -6.39619e-22)
(-0.160503 0.00447118 -5.86664e-22)
(-0.167595 0.00407597 -6.3021e-22)
(-0.1721 0.00313429 -6.77885e-22)
(-0.00304806 0.00605081 -2.24911e-22)
(-0.0151151 0.0121481 3.97276e-21)
(-0.0338844 0.0148801 -7.16107e-22)
(-0.0526731 0.0156979 2.74222e-21)
(-0.071251 0.0154324 1.51297e-21)
(-0.0883186 0.0146411 -1.36544e-22)
(-0.103807 0.0136139 5.80614e-23)
(-0.11759 0.01249 1.30411e-21)
(-0.129753 0.0113275 -1.60222e-21)
(-0.140229 0.0100893 -3.91975e-22)
(-0.149265 0.00890996 -2.28705e-22)
(-0.156285 0.00746399 1.86752e-21)
(-0.162709 0.00682048 -8.37845e-22)
(-0.165875 0.00514393 -6.10797e-22)
(-0.00338027 0.00839842 -5.98104e-22)
(-0.0156002 0.0168885 1.53542e-21)
(-0.0341648 0.0207064 -7.44635e-22)
(-0.0525881 0.0218567 -1.23931e-21)
(-0.0706766 0.0214948 2.52449e-22)
(-0.0871698 0.0203974 2.80577e-21)
(-0.102007 0.0189702 -2.91033e-21)
(-0.115062 0.0174085 -3.20944e-21)
(-0.12643 0.0157952 -2.8633e-22)
(-0.136 0.0140713 6.47011e-22)
(-0.144119 0.0124411 -1.12381e-21)
(-0.149913 0.0103703 -8.41877e-22)
(-0.155365 0.0095213 9.25283e-22)
(-0.156502 0.00696865 4.08475e-21)
(-0.00381515 0.0106599 -3.57865e-21)
(-0.0162382 0.021479 5.01462e-22)
(-0.0345348 0.0263651 -3.55826e-21)
(-0.052475 0.0278479 5.2616e-22)
(-0.0699134 0.0273968 -3.00066e-21)
(-0.0856406 0.0260023 8.69157e-22)
(-0.0996077 0.0241851 2.31846e-21)
(-0.111686 0.0221969 7.68797e-22)
(-0.121984 0.020147 1.1771e-21)
(-0.130329 0.0179487 -1.47962e-21)
(-0.137221 0.0158943 2.17719e-21)
(-0.14133 0.013159 -2.96522e-21)
(-0.14554 0.0121738 3.50895e-22)
(-0.143924 0.00854756 -3.62984e-21)
(-0.00434596 0.0128137 2.72869e-21)
(-0.0170215 0.0258806 -5.41242e-21)
(-0.0349908 0.031811 3.94017e-21)
(-0.0523334 0.0336248 -2.27507e-21)
(-0.068963 0.0330926 -1.78804e-21)
(-0.083733 0.0314118 -2.74084e-21)
(-0.0966081 0.0292166 -2.24967e-21)
(-0.107456 0.0268153 1.64526e-21)
(-0.116405 0.0243467 -3.92833e-22)
(-0.123182 0.0216889 2.40975e-21)
(-0.12854 0.0192478 -1.35477e-21)
(-0.130446 0.0158023 3.54185e-21)
(-0.13318 0.0147828 1.5615e-22)
(-0.128033 0.00983713 1.31198e-21)
(-0.0049647 0.0148409 7.14636e-22)
(-0.0179408 0.0300571 -1.66584e-22)
(-0.0355284 0.0370007 -4.39986e-21)
(-0.0521628 0.0391418 1.70655e-21)
(-0.0678272 0.0385365 2.35365e-21)
(-0.0814482 0.0365811 3.34688e-21)
(-0.0930068 0.0340212 1.76781e-21)
(-0.102362 0.0312224 4.24808e-22)
(-0.109672 0.0283558 -2.83332e-21)
(-0.114518 0.0252569 -3.94063e-22)
(-0.118028 0.0224783 -2.9192e-22)
(-0.117138 0.0182763 -4.99213e-21)
(-0.118196 0.0173605 3.95926e-22)
(-0.10865 0.0108215 -1.23978e-21)
(-0.00566247 0.0167249 2.85166e-22)
(-0.0189858 0.0339757 1.18282e-21)
(-0.036142 0.0418934 6.96764e-22)
(-0.0519618 0.0443544 2.74367e-21)
(-0.0665066 0.0436831 1.36219e-21)
(-0.0787862 0.041465 -4.83513e-21)
(-0.0887997 0.0385545 1.60781e-21)
(-0.0963908 0.035375 5.92607e-22)
(-0.101761 0.0321329 3.8184e-22)
(-0.104276 0.0286154 1.63835e-21)
(-0.105621 0.0255573 1.24574e-21)
(-0.10124 0.0205633 4.07396e-21)
(-0.100445 0.0199195 2.512e-21)
(-0.085495 0.0115301 -2.78436e-21)
(-0.00642973 0.0184523 3.31787e-21)
(-0.0201449 0.0376073 -4.62232e-21)
(-0.0368251 0.0464509 -8.6397e-22)
(-0.0517276 0.0492197 -3.51229e-21)
(-0.0650003 0.0484876 -3.0749e-22)
(-0.0757443 0.0460181 5.54434e-22)
(-0.0839784 0.0427712 2.37483e-22)
(-0.0895224 0.0392286 -5.76953e-21)
(-0.0926376 0.0356339 5.9137e-21)
(-0.092381 0.0317252 -3.48098e-22)
(-0.0912322 0.0284476 -3.55383e-22)
(-0.082545 0.0226555 -2.94646e-21)
(-0.0797124 0.0224432 2.14777e-21)
(-0.0581743 0.012084 -2.82508e-21)
(-0.00725667 0.020013 6.32346e-21)
(-0.0214055 0.040927 2.21154e-21)
(-0.0375698 0.0506383 -1.50901e-22)
(-0.0514556 0.0536968 -9.30723e-22)
(-0.0633047 0.0529059 5.65033e-21)
(-0.0723157 0.050195 -1.54638e-21)
(-0.0785281 0.0466251 1.19951e-21)
(-0.0817259 0.0427376 3.94344e-21)
(-0.0822509 0.038812 -2.49292e-21)
(-0.0787331 0.0345462 -1.40029e-21)
(-0.0747403 0.0310977 -6.96865e-22)
(-0.0608201 0.0245769 -5.26649e-21)
(-0.0556733 0.0247865 -3.04491e-21)
(-0.0262205 0.0127814 2.42299e-21)
(-0.00813358 0.0214 -7.07078e-21)
(-0.0227546 0.0439144 5.57282e-21)
(-0.0383665 0.0544243 -3.99553e-21)
(-0.0511387 0.0577473 6.16821e-21)
(-0.0614119 0.0568953 -6.63676e-22)
(-0.0684874 0.0539509 4.99222e-21)
(-0.0724246 0.0500704 1.21505e-21)
(-0.0729565 0.0458567 -2.80768e-21)
(-0.0705314 0.0416195 -3.16979e-21)
(-0.063208 0.0370425 -2.06766e-21)
(-0.0559623 0.0334216 3.2468e-23)
(-0.0358538 0.026439 6.89794e-21)
(-0.027833 0.0265979 -1.30026e-21)
(0.0107792 0.0140093 4.4034e-21)
(-0.00905112 0.02261 2.06071e-21)
(-0.0241784 0.0465533 3.1609e-21)
(-0.0392039 0.0577815 4.73472e-21)
(-0.050766 0.0613355 -8.78099e-21)
(-0.0593085 0.0604152 -6.50087e-21)
(-0.0642373 0.0572424 -3.77669e-21)
(-0.06563 0.0530622 -4.99199e-21)
(-0.0631495 0.0485423 2.93659e-21)
(-0.0573791 0.0440106 4.57993e-21)
(-0.0456633 0.039205 4.75139e-21)
(-0.0345963 0.0352703 -2.77103e-21)
(-0.00745242 0.0283964 -4.46541e-21)
(0.00423074 0.0279997 1.02948e-21)
(0.0538881 0.0155623 2.47354e-21)
(-0.0100007 0.0236426 -5.74423e-21)
(-0.0256628 0.0488326 -5.08411e-21)
(-0.040068 0.0606866 1.91154e-21)
(-0.0503217 0.0644289 -4.50619e-21)
(-0.0569728 0.0634272 2.62327e-21)
(-0.059531 0.0600283 4.96246e-21)
(-0.0580877 0.0555583 2.40509e-21)
(-0.052213 0.0507541 -1.66378e-21)
(-0.0426406 0.0459357 -2.55473e-21)
(-0.0259546 0.0410802 4.11563e-22)
(-0.0102578 0.0365592 1.55217e-21)
(0.0250117 0.030278 5.15412e-21)
(0.0405033 0.0294564 -3.04303e-22)
(0.104471 0.0173135 -5.48496e-21)
(-0.0109746 0.0245009 2.38644e-21)
(-0.0271932 0.0507455 -2.60971e-21)
(-0.0409419 0.0631207 -3.98272e-21)
(-0.0497839 0.0669991 6.55763e-21)
(-0.0543726 0.065897 -8.84851e-21)
(-0.0543177 0.0622714 -2.64633e-21)
(-0.049716 0.0575211 -4.42448e-21)
(-0.0400227 0.0524584 3.56979e-21)
(-0.0260767 0.047335 -3.98584e-21)
(-0.00381927 0.0426286 -4.51795e-21)
(0.017284 0.0374123 3.20606e-22)
(0.0624018 0.0319062 3.58644e-21)
(0.08139 0.030903 -5.59402e-22)
(0.163497 0.0196879 -2.11078e-21)
(-0.0119664 0.0251904 4.398e-21)
(-0.0287545 0.0522895 -6.40258e-22)
(-0.0418045 0.0650697 -1.27241e-21)
(-0.0491221 0.0690223 -1.83896e-21)
(-0.0514618 0.0677943 6.14913e-21)
(-0.0485249 0.0639394 7.09223e-22)
(-0.0404 0.0589202 1.1657e-21)
(-0.0264199 0.0536336 -4.78947e-21)
(-0.007434 0.0482182 9.13003e-22)
(0.0212165 0.0437576 -2.64686e-21)
(0.0484255 0.0379108 4.79639e-22)
(0.105387 0.0335469 -8.75806e-21)
(0.127581 0.0319957 -2.60567e-22)
(0.231864 0.0230366 4.68668e-21)
(-0.0129708 0.0257195 -4.8396e-22)
(-0.0303306 0.0534665 -2.7462e-21)
(-0.0426299 0.0665244 2.68452e-21)
(-0.0482957 0.0704797 -1.40113e-21)
(-0.0481769 0.0690952 2.19444e-21)
(-0.0420529 0.0650075 -5.74527e-22)
(-0.0299815 0.0597353 2.75438e-21)
(-0.0111624 0.0542666 2.41613e-21)
(0.013589 0.0486332 6.8601e-21)
(0.0496329 0.0445237 6.2763e-21)
(0.083861 0.0379789 1.77127e-21)
(0.154614 0.0355923 1.28425e-20)
(0.179935 0.0326008 -1.45127e-22)
(0.310179 0.0276206 5.22421e-22)
(-0.0139837 0.0260981 2.87315e-21)
(-0.0319042 0.0542817 7.064e-21)
(-0.043386 0.0674803 3.48289e-21)
(-0.0472513 0.0713586 5.12504e-21)
(-0.0444327 0.0697827 -5.38112e-21)
(-0.0347684 0.0654603 9.12588e-22)
(-0.0182558 0.0599596 1.00601e-21)
(0.00606538 0.0543604 5.36931e-21)
(0.0374424 0.0485943 -6.39756e-21)
(0.0819635 0.0450861 -3.35669e-21)
(0.124466 0.0376492 -2.57032e-21)
(0.210653 0.0383898 -2.42986e-21)
(0.239579 0.0329032 -2.44448e-22)
(0.398417 0.0336335 1.27294e-20)
(-0.0150024 0.0263378 -2.75296e-21)
(-0.0334562 0.0547438 -6.31828e-23)
(-0.0440328 0.067938 1.98304e-21)
(-0.0459203 0.0716529 -9.37652e-23)
(-0.040118 0.0698489 -3.91433e-22)
(-0.0264968 0.0652945 -3.02052e-21)
(-0.00495775 0.0596052 -2.95231e-22)
(0.0256493 0.0539571 -1.48891e-21)
(0.0646931 0.0481578 7.92916e-21)
(0.118845 0.0456052 -8.24725e-22)
(0.17128 0.0371514 -2.9654e-22)
(0.273824 0.0421667 -8.72975e-21)
(0.307864 0.0334741 2.90817e-22)
(0.495561 0.041201 -1.02918e-20)
(-0.0160248 0.0264509 8.57616e-22)
(-0.034965 0.0548641 -1.64627e-21)
(-0.0445216 0.0679034 -4.89509e-21)
(-0.0442153 0.0713637 -2.66898e-21)
(-0.0350911 0.069297 1.85825e-21)
(-0.017016 0.0645223 5.42731e-22)
(0.010248 0.0587055 3.36311e-21)
(0.0480643 0.0531303 -5.01814e-21)
(0.0960086 0.0474488 -4.01416e-21)
(0.160991 0.0462407 5.90131e-21)
(0.225434 0.0369509 8.81627e-22)
(0.344065 0.0469528 -2.94404e-21)
(0.386031 0.0352434 -1.42891e-22)
(0.599328 0.0503786 1.35613e-20)
(-0.0170495 0.0264497 2.73896e-22)
(-0.0364052 0.0546556 -3.01262e-22)
(-0.0447925 0.067387 3.92914e-22)
(-0.0420284 0.0705015 1.98812e-21)
(-0.0291745 0.0681422 -9.85584e-23)
(-0.00605055 0.0631746 4.9146e-21)
(0.027772 0.0573222 1.26754e-22)
(0.073878 0.051991 3.9407e-21)
(0.132139 0.0466669 1.01804e-21)
(0.209138 0.0471511 -3.95888e-21)
(0.287928 0.0377375 2.87162e-21)
(0.420916 0.0526031 1.98756e-20)
(0.474568 0.0392606 -1.49546e-21)
(0.70614 0.0611306 -2.81298e-20)
(-0.018075 0.0263464 -1.84167e-22)
(-0.0377471 0.0541329 -3.2642e-22)
(-0.0447732 0.0664048 6.44666e-22)
(-0.0392278 0.0690853 -2.94683e-21)
(-0.0221514 0.0664142 -1.50888e-21)
(0.00673382 0.0613049 -2.37993e-21)
(0.048101 0.0555502 -1.03083e-21)
(0.103742 0.0506948 -1.02304e-21)
(0.17387 0.0460917 9.57328e-23)
(0.263992 0.0485081 2.85908e-21)
(0.359273 0.0402888 -2.68789e-21)
(0.50358 0.0589658 -2.44061e-21)
(0.57248 0.046303 4.67982e-22)
(0.811479 0.0732557 3.58667e-20)
(-0.0389544 0.0533103 -5.57342e-22)
(-0.0443773 0.0649782 -7.53488e-24)
(-0.0356548 0.0671439 1.6012e-21)
(-0.0137627 0.0641601 1.77652e-21)
(0.0217317 0.0589923 -1.88799e-21)
(0.0717925 0.0535228 -3.36596e-21)
(0.138365 0.0494467 -8.5871e-22)
(0.221942 0.0460762 1.80532e-21)
(0.32612 0.0505484 -8.88935e-21)
(0.439123 0.0452219 -5.81379e-21)
(0.590928 0.0660736 -5.39601e-21)
(0.676849 0.0565479 2.46303e-21)
(0.910603 0.0862993 -3.86989e-20)
(-0.0399839 0.0522024 -1.46957e-21)
(-0.0435027 0.0631338 4.11351e-22)
(-0.0311225 0.0647165 -9.76201e-23)
(-0.00370494 0.0614454 -6.58863e-22)
(0.0393962 0.0563454 -4.33019e-22)
(0.0994602 0.0514158 -1.57222e-21)
(0.178469 0.0485035 3.23527e-21)
(0.276938 0.0470163 -5.71387e-21)
(0.395782 0.0536294 4.56557e-21)
(0.526061 0.0527734 2.15608e-21)
(0.681358 0.0741639 1.67267e-21)
(0.783039 0.0695021 6.83956e-21)
(0.999369 0.0995563 3.48585e-20)
(-0.0407869 0.0508271 4.64647e-21)
(-0.042027 0.0608989 2.66613e-21)
(-0.0254145 0.0618533 5.96088e-23)
(0.00836928 0.0583555 3.92378e-22)
(0.0602319 0.0535051 7.48735e-23)
(0.131747 0.0494505 -2.93679e-21)
(0.224717 0.0481731 -6.24097e-21)
(0.339148 0.0493 4.09906e-21)
(0.472667 0.0582109 -2.70152e-21)
(0.617681 0.0627514 8.26836e-21)
(0.772606 0.0834729 -5.93737e-21)
(0.885575 0.0842037 -1.26108e-20)
(1.07487 0.112212 7.58739e-21)
(-0.0413062 0.0491999 5.05123e-21)
(-0.0398113 0.0583054 -2.21407e-21)
(-0.0182834 0.0586171 5.48704e-23)
(0.0228476 0.0549978 5.90413e-22)
(0.0847799 0.0506464 -1.26435e-21)
(0.169281 0.0478931 3.5003e-21)
(0.277606 0.0488068 -6.37609e-22)
(0.408423 0.0532576 -5.05025e-21)
(0.555646 0.0647205 1.23306e-20)
(0.710898 0.074659 -1.00982e-20)
(0.861777 0.0939827 1.32871e-20)
(0.979348 0.0995503 -1.85387e-21)
(1.1357 0.123535 -5.10371e-20)
(-0.0367004 0.0553934 -5.28225e-21)
(-0.00945417 0.0550825 -8.50339e-22)
(0.0401511 0.0515019 7.91695e-22)
(0.113596 0.0479792 3.78143e-21)
(0.212618 0.0470501 2.57879e-21)
(0.337348 0.0507763 1.51455e-21)
(0.484046 0.0591221 1.34721e-20)
(0.642662 0.0733646 -3.28605e-21)
(0.802371 0.0878534 -4.00524e-22)
(0.945728 0.105349 -1.56626e-20)
(1.06057 0.114586 1.23771e-20)
(1.18196 0.132976 -9.04651e-21)
(-0.0325201 0.0522066 1.13072e-20)
(0.00137344 0.0513364 -1.00004e-21)
(0.0607233 0.0480209 -5.30409e-22)
(0.147215 0.045747 1.17003e-21)
(0.26216 0.0472553 -4.02837e-21)
(0.403732 0.054431 5.56463e-22)
(0.564641 0.0669934 -5.98451e-22)
(0.730905 0.0840126 -6.4151e-21)
(0.888942 0.101648 4.57715e-21)
(1.02166 0.117053 1.91683e-20)
(1.12717 0.128612 3.94217e-21)
(1.21492 0.140082 4.90101e-20)
(-0.0270785 0.0487927 -1.15976e-20)
(0.0145205 0.0474784 5.93562e-21)
(0.0850142 0.0447308 1.26428e-22)
(0.186109 0.0442234 1.67663e-22)
(0.31806 0.0488479 6.85149e-21)
(0.476009 0.0600361 7.28246e-21)
(0.648192 0.0767999 -8.75938e-21)
(0.817234 0.0962174 -3.69279e-21)
(0.968025 0.115386 -3.65711e-21)
(1.08757 0.128619 -3.56827e-20)
(1.17873 0.141026 3.05689e-20)
(1.23688 0.144282 -2.86737e-21)
(-0.0201688 0.045204 1.61235e-20)
(0.0303223 0.043621 -2.10352e-21)
(0.11346 0.0418311 -5.43474e-22)
(0.230631 0.0437045 -3.36746e-21)
(0.380118 0.0521371 1.47979e-21)
(0.552848 0.0677081 -9.60457e-21)
(0.732211 0.0882757 1.06005e-20)
(0.898703 0.109341 4.27126e-21)
(1.03786 0.128537 6.05467e-21)
(1.14245 0.13968 3.27268e-20)
(1.21632 0.151015 -1.80872e-20)
(1.25203 0.145542 5.95006e-21)
(0.0491191 0.0398906 3.18638e-21)
(0.146455 0.0395436 8.703e-22)
(0.280942 0.0444948 1.97932e-21)
(0.447696 0.0573565 -3.1768e-21)
(0.632388 0.0773705 -8.60216e-22)
(0.814061 0.100983 -1.30021e-20)
(0.97299 0.122714 -5.29707e-22)
(1.09757 0.140764 -1.33721e-20)
(1.18619 0.149813 -2.73457e-20)
(1.2424 0.157954 1.10391e-21)
(1.27273 0.151822 -6.51514e-20)
(0.0712466 0.0364288 -5.0768e-21)
(0.18432 0.0381103 -2.43856e-21)
(0.336943 0.0468832 4.85705e-22)
(0.51968 0.0646138 -1.81294e-21)
(0.712423 0.0887506 -3.24905e-21)
(0.891325 0.114387 -4.5483e-21)
(1.03861 0.135767 6.28533e-21)
(1.14703 0.151882 -6.5275e-21)
(1.21954 0.158517 9.52062e-21)
(1.26191 0.16392 -2.93056e-20)
(1.28418 0.156456 -4.05011e-21)
(0.227256 0.0377883 1.75418e-22)
(0.398203 0.0511075 -9.49647e-22)
(0.594523 0.0738538 -2.98342e-21)
(0.79067 0.101425 -1.79735e-21)
(0.962108 0.127954 1.04303e-20)
(1.09491 0.148094 -9.37921e-21)
(1.18674 0.161755 -5.2423e-21)
(1.24439 0.165967 1.22281e-20)
(1.27501 0.168828 2.1825e-21)
(1.29053 0.160353 8.32735e-20)
(0.275299 0.0388388 4.63725e-21)
(0.463921 0.0573122 6.16612e-22)
(0.670381 0.0848551 3.17257e-21)
(0.86506 0.114899 -1.42357e-21)
(1.02519 0.141231 9.53669e-21)
(1.14193 0.159446 5.91918e-23)
(1.21774 0.170399 9.71576e-21)
(1.26216 0.172286 7.29288e-21)
(1.28335 0.172936 4.71001e-20)
(1.29369 0.163602 1.38016e-22)
(0.328271 0.0415053 -8.91232e-21)
(0.532943 0.0655122 -2.07407e-21)
(0.745323 0.0972646 2.3218e-21)
(0.933948 0.12869 7.03311e-21)
(1.08 0.153886 -3.97369e-21)
(1.18023 0.169712 1.13238e-20)
(1.24122 0.177904 1.38314e-20)
(1.27433 0.177657 2.40425e-21)
(1.28811 0.176431 3.47198e-20)
(1.29428 0.166401 -8.48813e-20)
(0.603835 0.075579 1.93014e-21)
(0.817546 0.110661 2.04037e-21)
(0.996225 0.142385 3.81911e-21)
(1.12654 0.16571 -4.90901e-21)
(1.21067 0.178887 -2.2943e-20)
(1.25844 0.184407 -7.56696e-21)
(1.28214 0.182267 2.25965e-20)
(1.29021 0.179468 -9.83971e-21)
(1.2933 0.168878 1.92027e-20)
(0.675023 0.0872591 1.07928e-21)
(0.885551 0.124621 -1.33318e-21)
(1.05131 0.155672 5.01815e-21)
(1.16522 0.176602 6.10958e-21)
(1.23426 0.187036 -1.75255e-20)
(1.27057 0.190062 -1.20445e-20)
(1.28665 0.186289 -2.95009e-20)
(1.29041 0.182177 -8.61326e-20)
(1.29117 0.171155 5.69827e-20)
(0.948239 0.13877 -6.48022e-21)
(1.09907 0.168339 -9.94706e-21)
(1.1967 0.186542 -1.03846e-20)
(1.25205 0.194267 5.90817e-20)
(1.27866 0.195029 1.60059e-20)
(1.28869 0.189872 1.97309e-20)
(1.28924 0.184663 -3.61087e-21)
(1.28829 0.173305 8.24403e-21)
(1.13973 0.180268 1.20403e-20)
(1.22179 0.195573 2.38569e-20)
(1.26503 0.20071 -2.46272e-20)
(1.2836 0.199455 -3.23961e-21)
(1.2889 0.19314 -4.34248e-20)
(1.28711 0.187002 1.60132e-20)
(1.2849 0.175386 -6.38747e-20)
(1.17374 0.191409 -1.69018e-20)
(1.24134 0.20377 -4.39389e-20)
(1.27409 0.206496 1.65308e-21)
(1.28611 0.20347 -2.31073e-21)
(1.28779 0.196193 5.98646e-20)
(1.2843 0.189254 4.21489e-20)
(1.28115 0.177437 3.38303e-20)
(1.25618 0.211235 4.23146e-21)
(1.28001 0.211754 3.4948e-20)
(1.28678 0.207187 -2.36199e-20)
(1.28571 0.199107 2.86081e-20)
(1.281 0.191462 -5.15889e-20)
(1.27714 0.179482 -4.42392e-20)
(1.28344 0.216602 -5.73546e-20)
(1.28607 0.210697 2.67065e-20)
(1.28293 0.20194 -1.91419e-20)
(1.27734 0.193655 2.56447e-20)
(1.27293 0.181537 5.09891e-20)
(1.2843 0.214072 5.33374e-20)
(1.27963 0.204732 -4.64531e-20)
(1.27341 0.195852 -2.69507e-20)
(1.26857 0.183612 -1.21153e-20)
(1.27593 0.207512 3.96681e-20)
(1.26926 0.198066 -2.47256e-20)
(1.26407 0.185712 -5.09244e-20)
(1.26492 0.200305 6.14935e-20)
(1.25945 0.187839 -1.52388e-20)
(1.25471 0.189992 5.26497e-20)
(1.25476 -0.189985 2.47476e-20)
(1.27199 -0.210304 3.26542e-20)
(1.26499 -0.200305 6.30846e-20)
(1.25951 -0.187832 -3.40443e-20)
(1.28182 -0.217382 -8.03833e-20)
(1.276 -0.207517 3.94763e-20)
(1.26933 -0.198067 -5.23343e-20)
(1.26414 -0.185705 -4.14345e-20)
(1.28438 -0.214086 4.66797e-20)
(1.2797 -0.204738 -5.48996e-20)
(1.27349 -0.195852 -1.29897e-20)
(1.26864 -0.183605 -2.7829e-20)
(1.28353 -0.216625 1.43475e-21)
(1.28615 -0.210712 1.20773e-20)
(1.28301 -0.201947 -2.38671e-20)
(1.27742 -0.193656 2.9782e-20)
(1.27301 -0.181529 5.72566e-20)
(1.2563 -0.21127 4.33372e-20)
(1.28011 -0.211781 2.34487e-20)
(1.28687 -0.207204 -1.13647e-20)
(1.2858 -0.199116 1.41129e-20)
(1.28109 -0.191463 -3.70578e-20)
(1.27722 -0.179474 -5.30845e-20)
(1.17387 -0.191453 -2.43725e-21)
(1.24147 -0.203808 -4.14402e-20)
(1.27419 -0.206526 -4.11715e-21)
(1.2862 -0.20349 -6.87235e-22)
(1.28788 -0.196204 4.02351e-20)
(1.28439 -0.189257 4.00046e-20)
(1.28124 -0.177429 4.44936e-20)
(1.13987 -0.180314 1.35997e-20)
(1.22192 -0.195614 2.62275e-20)
(1.26514 -0.200743 -3.46897e-20)
(1.28369 -0.199478 -7.8816e-21)
(1.289 -0.193153 -3.60534e-20)
(1.2872 -0.187005 -5.82909e-21)
(1.28499 -0.175378 -3.0675e-20)
(0.94837 -0.138817 1.24784e-21)
(1.09921 -0.168388 -1.46197e-20)
(1.19683 -0.186588 -1.94449e-21)
(1.25217 -0.194305 5.82812e-20)
(1.27877 -0.195056 8.7547e-21)
(1.28879 -0.189887 7.14041e-21)
(1.28934 -0.184668 4.83554e-22)
(1.28839 -0.173297 2.40149e-21)
(0.675117 -0.0872984 -2.09964e-21)
(0.885677 -0.124669 1.4169e-21)
(1.05145 -0.155723 3.86792e-21)
(1.16536 -0.176651 -5.17775e-22)
(1.23439 -0.187078 -1.29459e-20)
(1.27069 -0.190094 -1.23895e-20)
(1.28676 -0.186308 -3.03383e-20)
(1.29051 -0.182184 -7.97571e-20)
(1.29127 -0.171147 5.8587e-20)
(0.603915 -0.075618 1.6238e-21)
(0.817663 -0.11071 3.72556e-21)
(0.996364 -0.142439 2.4136e-21)
(1.12668 -0.165763 -8.97851e-21)
(1.21081 -0.178933 -2.49868e-20)
(1.25857 -0.184443 -1.79615e-21)
(1.28226 -0.18229 1.65292e-20)
(1.29032 -0.179478 -1.86388e-20)
(1.29341 -0.16887 3.43196e-20)
(0.328295 -0.0415336 -2.70947e-21)
(0.533009 -0.0655513 -1.38935e-21)
(0.74543 -0.0973143 3.03278e-21)
(0.934083 -0.128746 7.00182e-21)
(1.08014 -0.153943 -2.03398e-21)
(1.18038 -0.169764 1.00445e-20)
(1.24136 -0.177946 8.17533e-21)
(1.27446 -0.177683 1.53774e-21)
(1.28823 -0.176444 3.11265e-20)
(1.2944 -0.166395 -6.73992e-20)
(0.275313 -0.0388687 4.72955e-21)
(0.463974 -0.0573522 4.11829e-22)
(0.670475 -0.0849059 3.57661e-21)
(0.865188 -0.114958 -3.38412e-21)
(1.02533 -0.141292 9.02649e-21)
(1.14209 -0.159503 1.24048e-20)
(1.21789 -0.170446 -4.19076e-21)
(1.2623 -0.172317 6.1761e-21)
(1.28348 -0.172953 4.65619e-20)
(1.29382 -0.163597 -2.50121e-21)
(0.0970068 -0.0334185 1.17128e-21)
(0.227261 -0.0378211 2.565e-22)
(0.398242 -0.0511494 -1.04652e-21)
(0.594603 -0.0739062 -3.51575e-21)
(0.79079 -0.101486 2.46776e-21)
(0.962255 -0.128019 6.52452e-21)
(1.09507 -0.148156 -3.07782e-21)
(1.18691 -0.161808 7.518e-22)
(1.24455 -0.166004 4.05227e-23)
(1.27515 -0.16885 1.06957e-21)
(1.29068 -0.160351 9.22595e-20)
(0.0712284 -0.0364582 -4.57957e-21)
(0.184319 -0.038147 -3.4447e-21)
(0.336971 -0.0469283 -3.69575e-22)
(0.519747 -0.0646686 -2.0382e-21)
(0.712531 -0.0888144 -5.81231e-22)
(0.891468 -0.114456 -5.79347e-21)
(1.03877 -0.135834 4.37514e-21)
(1.1472 -0.151942 6.17099e-21)
(1.21972 -0.158561 -1.27759e-20)
(1.26207 -0.163947 -1.79616e-20)
(1.28434 -0.156456 7.05177e-21)
(0.0490997 -0.0399248 2.04164e-21)
(0.14645 -0.0395855 1.28822e-21)
(0.280961 -0.0445445 2.12874e-21)
(0.44775 -0.0574151 -2.29279e-21)
(0.632483 -0.0774377 -2.99425e-22)
(0.814196 -0.101056 -1.39249e-20)
(0.973155 -0.122787 -8.47858e-21)
(1.09775 -0.140831 -6.35459e-21)
(1.18637 -0.149864 -1.97715e-20)
(1.24258 -0.157988 -1.46908e-20)
(1.27291 -0.151827 -5.80916e-20)
(-0.0201914 -0.0452337 -5.86137e-21)
(0.0303029 -0.0436609 -2.6565e-21)
(0.113452 -0.0418794 -4.20274e-22)
(0.230644 -0.0437604 -4.13537e-21)
(0.380162 -0.0522008 6.15955e-22)
(0.55293 -0.0677798 -5.80799e-21)
(0.732336 -0.0883538 8.7171e-21)
(0.898865 -0.10942 -7.45614e-22)
(1.03805 -0.128611 8.76166e-21)
(1.14266 -0.139739 3.8168e-20)
(1.21652 -0.151057 -2.70653e-20)
(1.25223 -0.145551 5.29318e-21)
(-0.0270998 -0.0488275 -1.3548e-20)
(0.0145023 -0.0475251 7.27635e-21)
(0.0850062 -0.0447867 -8.00741e-23)
(0.186119 -0.0442868 -6.24741e-22)
(0.318096 -0.0489183 6.05944e-21)
(0.47608 -0.0601136 7.94556e-21)
(0.648305 -0.0768837 -7.89734e-21)
(0.817389 -0.0963024 -3.33553e-22)
(0.968213 -0.115468 -8.12642e-21)
(1.08779 -0.128685 -3.05537e-20)
(1.17894 -0.141077 2.22892e-20)
(1.2371 -0.144297 -2.9589e-21)
(-0.0325398 -0.0522471 1.24856e-20)
(0.00135718 -0.0513907 -1.93095e-21)
(0.0607167 -0.0480854 -1.61195e-22)
(0.147223 -0.0458193 1.15628e-21)
(0.262191 -0.0473342 -5.50035e-21)
(0.403794 -0.0545161 2.19239e-22)
(0.564743 -0.0670839 9.82827e-22)
(0.731051 -0.0841045 -1.19739e-20)
(0.889127 -0.101738 9.44088e-21)
(1.02188 -0.117128 1.55074e-20)
(1.1274 -0.128674 1.01722e-20)
(1.21516 -0.140105 4.50613e-20)
(-0.0414875 -0.0473587 -3.92963e-23)
(-0.0367183 -0.0554404 -4.98495e-21)
(-0.00946779 -0.0551451 -1.03352e-21)
(0.0401475 -0.051576 5.38989e-22)
(0.113606 -0.0480614 4.28717e-21)
(0.212648 -0.0471388 1.29634e-21)
(0.337405 -0.0508707 1.01668e-21)
(0.484138 -0.0592209 1.33171e-20)
(0.642798 -0.0734646 -3.07084e-21)
(0.802551 -0.0879533 -3.57771e-22)
(0.945954 -0.105433 -1.39754e-20)
(1.06082 -0.11466 1.16748e-20)
(1.18221 -0.133008 -2.73196e-21)
(-0.0413218 -0.0492314 5.75897e-21)
(-0.0398273 -0.0583596 -2.45095e-21)
(-0.018294 -0.0586888 1.4877e-22)
(0.0228478 -0.0550821 2.08728e-22)
(0.084794 -0.0507395 -9.89243e-22)
(0.169312 -0.0479928 3.07681e-21)
(0.277661 -0.048912 -3.17821e-22)
(0.408509 -0.0533664 -5.22204e-21)
(0.555773 -0.0648301 1.23549e-20)
(0.71107 -0.0747692 -4.87385e-21)
(0.862001 -0.0940758 7.75496e-21)
(0.979612 -0.0996366 -2.43323e-21)
(1.13597 -0.123579 -4.63785e-20)
(-0.0408022 -0.0508636 4.82936e-21)
(-0.0420413 -0.0609609 2.23304e-21)
(-0.0254219 -0.0619348 1.15636e-22)
(0.00837387 -0.0584507 6.00681e-23)
(0.0602508 -0.0536098 1.34244e-21)
(0.131782 -0.049562 -3.83554e-21)
(0.224773 -0.0482903 -7.24184e-21)
(0.339231 -0.0494201 4.01097e-21)
(0.472788 -0.0583321 -2.98048e-21)
(0.617846 -0.0628728 7.4826e-21)
(0.772826 -0.0835768 -3.33718e-22)
(0.885846 -0.084303 -1.13325e-20)
(1.07515 -0.112268 3.99557e-21)
(-0.0399989 -0.0522443 -1.84677e-21)
(-0.0435155 -0.0632043 7.74383e-22)
(-0.0311268 -0.0648081 -2.8855e-22)
(-0.00369574 -0.0615518 -7.01847e-22)
(0.0394207 -0.0564621 1.08805e-21)
(0.0995014 -0.0515398 -3.84712e-21)
(0.17853 -0.0486335 4.68192e-21)
(0.277023 -0.047149 -7.27145e-21)
(0.3959 -0.0537639 5.93061e-21)
(0.526219 -0.0529072 5.59933e-21)
(0.681572 -0.0742806 -3.04905e-21)
(0.78331 -0.0696149 1.12966e-20)
(0.999674 -0.0996257 2.86649e-20)
(-0.0389694 -0.0533582 -4.33168e-22)
(-0.0443888 -0.0650576 -7.95718e-23)
(-0.0356561 -0.067246 1.59637e-21)
(-0.0137491 -0.0642779 1.37788e-21)
(0.0217619 -0.059121 -1.10059e-21)
(0.07184 -0.0536594 -2.53333e-21)
(0.138431 -0.0495898 -1.81317e-21)
(0.22203 -0.0462223 2.60244e-21)
(0.326239 -0.0506975 -1.08174e-20)
(0.439277 -0.045369 -4.43974e-21)
(0.591138 -0.0662054 -6.68053e-21)
(0.677115 -0.0566745 1.16172e-22)
(0.910923 -0.0863834 -4.01374e-20)
(-0.0180821 -0.0263626 1.71346e-22)
(-0.0377623 -0.0541874 -4.16989e-22)
(-0.0447834 -0.0664933 6.11284e-22)
(-0.0392264 -0.069198 -2.52164e-21)
(-0.0221337 -0.0665434 -1.03624e-21)
(0.00676927 -0.0614455 -3.19138e-21)
(0.0481547 -0.0556993 9.59103e-22)
(0.103815 -0.0508509 -2.12325e-21)
(0.173963 -0.0462515 -1.67879e-21)
(0.264114 -0.0486721 3.9903e-21)
(0.359425 -0.0404497 -2.70612e-21)
(0.503788 -0.0591147 -2.54958e-21)
(0.572736 -0.0464439 -2.77977e-21)
(0.811808 -0.0733557 4.00146e-20)
(-0.0170574 -0.0264691 7.27885e-23)
(-0.0364208 -0.0547171 -7.34936e-22)
(-0.0448018 -0.0674848 1.22074e-21)
(-0.0420248 -0.0706248 9.84465e-22)
(-0.0291534 -0.0682826 2.85438e-22)
(-0.00601058 -0.0633269 5.71718e-21)
(0.0278312 -0.0574835 -1.95571e-21)
(0.0739572 -0.0521598 5.79632e-21)
(0.132238 -0.0468405 1.53534e-21)
(0.209266 -0.0473298 -5.77804e-21)
(0.28808 -0.0379129 2.90496e-21)
(0.421125 -0.05277 1.81353e-20)
(0.474815 -0.0394161 -1.15453e-21)
(0.706473 -0.0612482 -2.92588e-20)
(-0.0160335 -0.0264736 9.41927e-22)
(-0.0349809 -0.0549329 -1.80543e-21)
(-0.0445302 -0.0680107 -5.54944e-21)
(-0.04421 -0.0714975 -1.80333e-21)
(-0.0350674 -0.0694484 2.6649e-21)
(-0.0169725 -0.0646857 1.24623e-22)
(0.0103116 -0.0588784 2.19739e-21)
(0.0481485 -0.0533112 -3.62104e-21)
(0.0961132 -0.0476356 -5.38563e-21)
(0.161124 -0.0464331 5.82796e-21)
(0.225589 -0.037141 -1.87462e-23)
(0.344275 -0.0471368 -1.72408e-21)
(0.38627 -0.0354138 2.29451e-22)
(0.599661 -0.0505149 1.52441e-20)
(-0.0150118 -0.0263642 -2.91835e-21)
(-0.0334727 -0.0548203 6.57365e-22)
(-0.044041 -0.068055 1.10927e-21)
(-0.0459137 -0.0717969 2.01763e-22)
(-0.0400924 -0.0700109 8.21062e-22)
(-0.0264509 -0.0654685 -3.95239e-21)
(-0.0048912 -0.0597889 -8.84063e-22)
(0.025737 -0.0541491 -1.08908e-21)
(0.0648015 -0.0483569 6.64395e-21)
(0.118982 -0.0458101 1.18315e-21)
(0.171437 -0.0373556 4.29996e-22)
(0.274035 -0.042366 -1.18843e-20)
(0.308097 -0.0336592 -7.21207e-22)
(0.495888 -0.0413561 -8.93571e-21)
(-0.0139939 -0.0261283 1.80784e-21)
(-0.0319211 -0.0543659 7.47938e-21)
(-0.0433939 -0.0676067 3.93401e-21)
(-0.047244 -0.0715126 4.98863e-21)
(-0.044406 -0.0699546 -5.3928e-21)
(-0.0347212 -0.0656443 1.19792e-21)
(-0.0181878 -0.0601533 2.0616e-22)
(0.00615457 -0.0545626 7.06806e-21)
(0.0375524 -0.0488046 -7.12319e-21)
(0.0821014 -0.0453019 -4.54395e-21)
(0.124623 -0.0378663 -1.24092e-21)
(0.210861 -0.0386017 -3.69011e-21)
(0.239805 -0.033102 1.24899e-21)
(0.398734 -0.0338058 1.15256e-20)
(-0.0129815 -0.0257537 -1.88153e-22)
(-0.0303479 -0.0535585 -2.69937e-21)
(-0.0426377 -0.0666602 1.83349e-21)
(-0.048288 -0.0706434 2.91018e-22)
(-0.0481499 -0.0692765 1.80453e-21)
(-0.0420056 -0.0652007 6.03677e-23)
(-0.0299136 -0.059938 1.71378e-21)
(-0.0110738 -0.0544778 1.11004e-21)
(0.0136982 -0.0488533 6.52147e-21)
(0.049769 -0.0447491 7.86937e-21)
(0.0840164 -0.0382067 1.78817e-21)
(0.154815 -0.0358143 1.13104e-20)
(0.180154 -0.0328112 -2.11991e-22)
(0.310481 -0.0278068 1.16105e-21)
(-0.0119777 -0.0252288 3.23727e-21)
(-0.0287721 -0.0523893 -3.82498e-23)
(-0.0418123 -0.0652146 -1.07304e-21)
(-0.0491144 -0.0691951 -1.44217e-21)
(-0.0514352 -0.0679844 5.58385e-21)
(-0.0484785 -0.0641409 8.78548e-22)
(-0.0403336 -0.0591311 5.97892e-22)
(-0.0263338 -0.053853 -5.63738e-21)
(-0.00732759 -0.0484463 2.69323e-21)
(0.0213478 -0.0439915 -2.76369e-21)
(0.0485761 -0.0381464 5.94889e-22)
(0.105577 -0.0337765 -1.02219e-20)
(0.127788 -0.0322149 5.46824e-22)
(0.232143 -0.0232321 3.10224e-21)
(-0.0109863 -0.0245434 1.18891e-21)
(-0.027211 -0.050853 -1.45187e-21)
(-0.0409498 -0.0632744 -4.60146e-21)
(-0.0497765 -0.0671806 6.96274e-21)
(-0.0543469 -0.0660952 -9.42454e-21)
(-0.054273 -0.0624805 -2.84203e-21)
(-0.0496523 -0.0577392 -4.29402e-21)
(-0.0399406 -0.0526848 4.64146e-21)
(-0.0259749 -0.0475688 -4.35883e-21)
(-0.0036956 -0.0428705 -5.73671e-21)
(0.017427 -0.0376529 2.45806e-21)
(0.0625759 -0.0321413 2.35001e-21)
(0.0815822 -0.0311269 5.20056e-23)
(0.163748 -0.0198877 -3.90994e-21)
(-0.0100126 -0.0236893 -8.12654e-21)
(-0.0256806 -0.0489477 -3.80715e-21)
(-0.040076 -0.0608487 1.47662e-21)
(-0.0503149 -0.0646185 -3.11672e-21)
(-0.0569484 -0.0636329 2.8875e-21)
(-0.0594887 -0.0602443 3.86722e-21)
(-0.0580277 -0.0557827 1.95391e-21)
(-0.0521357 -0.0509863 -1.08599e-21)
(-0.0425458 -0.046174 -4.39742e-21)
(-0.0258399 -0.0413266 2.12579e-21)
(-0.0101253 -0.0368039 1.68166e-21)
(0.025167 -0.0305176 4.29882e-21)
(0.0406767 -0.0296804 4.17538e-22)
(0.104689 -0.0175142 -6.92895e-21)
(-0.00906309 -0.0226607 1.25149e-21)
(-0.024196 -0.0466756 3.53127e-21)
(-0.0392119 -0.0579516 5.13548e-21)
(-0.0507598 -0.0615327 -8.39894e-21)
(-0.0592858 -0.0606276 -7.06716e-21)
(-0.0641979 -0.0574644 -3.42735e-21)
(-0.0655744 -0.053292 -5.82083e-21)
(-0.0630782 -0.0487794 2.69526e-21)
(-0.0572924 -0.0442535 6.23069e-21)
(-0.0455587 -0.0394529 3.49603e-21)
(-0.0344783 -0.0355187 -2.2992e-21)