/*--------------------------------*- C++ -*----------------------------------*\
  =========                 |
  \\      /  F ield         | OpenFOAM: The Open Source CFD Toolbox
   \\    /   O peration     | Website:  https://openfoam.org
    \\  /    A nd           | Version:  7
     \\/     M anipulation  |
\*---------------------------------------------------------------------------*/
FoamFile
{
    version     2.0;
    format      ascii;
    class       surfaceScalarField;
    location    "30";
    object      phi;
}
// * * * * * * * * * * * * * * * * * * * * * * * * * * * * * * * * * * * * * //

dimensions      [0 3 -1 0 0 0 0];

internalField   nonuniform List<scalar> 
32949
(
-1.24973e-05
1.23051e-05
1.92195e-07
-4.02799e-05
2.7346e-05
4.36664e-07
-7.85735e-05
3.76984e-05
5.95157e-07
-0.000123984
4.47191e-05
6.91824e-07
-0.000174487
4.97464e-05
7.56384e-07
-0.000228879
5.3583e-05
8.09168e-07
-0.000286502
5.67624e-05
8.60331e-07
-0.000346936
5.95231e-05
9.10372e-07
-0.000409857
6.1968e-05
9.53758e-07
-0.00047476
6.39213e-05
9.81728e-07
-0.0005415
6.57562e-05
9.83781e-07
-0.000608817
6.63701e-05
9.46485e-07
-0.000679135
6.94588e-05
8.58852e-07
6.85444e-05
7.00846e-07
-0.00074838
-1.23898e-05
2.46949e-05
-3.99549e-05
5.4911e-05
-7.79448e-05
7.56884e-05
-0.000122971
8.97453e-05
-0.000172998
9.9773e-05
-0.000226804
0.00010739
-0.000283711
0.000113669
-0.000343273
0.000119085
-0.000405145
0.00012384
-0.000468773
0.000127549
-0.00053401
0.000130993
-0.000599346
0.000131705
-0.000667451
0.000137564
0.000134366
-0.000733273
-1.21763e-05
3.68711e-05
-3.93077e-05
8.20425e-05
-7.6692e-05
0.000113073
-0.00012095
0.000134003
-0.000170025
0.000148848
-0.000222661
0.000160026
-0.000278134
0.000169142
-0.00033595
0.000176901
-0.000395719
0.00018361
-0.00045679
0.000188619
-0.000519022
0.000193226
-0.000580391
0.000193074
-0.000644112
0.000201286
0.000193368
-0.000703114
-1.18613e-05
4.87324e-05
-3.83507e-05
0.000108532
-7.48348e-05
0.000149557
-0.000117949
0.000177117
-0.000165602
0.000196502
-0.000216487
0.00021091
-0.000269812
0.000222467
-0.000325006
0.000232096
-0.000381613
0.000240216
-0.00043883
0.000245836
-0.000496554
0.00025095
-0.000551954
0.000248474
-0.000609182
0.000258513
0.000242203
-0.000658017
-1.14519e-05
6.01844e-05
-3.71014e-05
0.000134181
-7.24024e-05
0.000184858
-0.000114006
0.000218721
-0.000159778
0.000242274
-0.000208338
0.00025947
-0.000258803
0.000272932
-0.000310498
0.000283791
-0.000362873
0.000292591
-0.000414918
0.000297881
-0.000466617
0.00030265
-0.000514013
0.000295869
-0.000562697
0.000307197
0.000277589
-0.000598083
-1.09572e-05
7.11416e-05
-3.55831e-05
0.000158807
-6.94329e-05
0.000218708
-0.000109174
0.000258462
-0.000152617
0.000285717
-0.000198287
0.00030514
-0.000245186
0.000319831
-0.0002925
0.000331105
-0.00033956
0.00033965
-0.000385077
0.000343398
-0.000429204
0.000346777
-0.000466491
0.000333157
-0.000504592
0.000345298
0.000296331
-0.000523334
-1.03882e-05
8.15298e-05
-3.38239e-05
0.000182243
-6.59726e-05
0.000250856
-0.000103516
0.000296005
-0.000144196
0.000326397
-0.000186423
0.000347367
-0.000229055
0.000362463
-0.000271101
0.000373151
-0.00031174
0.000380289
-0.000349325
0.000380982
-0.000384266
0.000381719
-0.000409249
0.000358139
-0.000434606
0.000370655
0.00029534
-0.000433615
-9.75733e-06
9.12871e-05
-3.18561e-05
0.000204342
-6.20746e-05
0.000281075
-9.71046e-05
0.000331035
-0.000134604
0.000363896
-0.000172848
0.000385611
-0.000210516
0.000400132
-0.000246401
0.000409036
-0.000279488
0.000413376
-0.000307671
0.000409166
-0.000331694
0.000405741
-0.000342073
0.000368518
-0.000352169
0.000380751
0.00027168
-0.000328508
-9.07868e-06
0.000100366
-2.97156e-05
0.000224979
-5.77984e-05
0.000309158
-9.00208e-05
0.000363257
-0.000123942
0.000397817
-0.000157674
0.000419344
-0.000189687
0.000432144
-0.000218505
0.000437854
-0.00024287
0.000437742
-0.000260114
0.00042641
-0.000271291
0.000416919
-0.000264697
0.000361924
-0.000256284
0.000372338
0.000222689
-0.000207294
-8.36714e-06
0.000108733
-2.74406e-05
0.000244052
-5.32075e-05
0.000334924
-8.23512e-05
0.000392401
-0.000112314
0.000427779
-0.00014102
0.00044805
-0.000166686
0.000457811
-0.000187517
0.000458685
-0.00020194
0.000452164
-0.000206639
0.000431109
-0.000202746
0.000413026
-0.000176886
0.000336064
-0.000145301
0.000340753
0.000146864
-6.94756e-05
-7.6382e-06
0.000116371
-2.50713e-05
0.000261485
-4.83678e-05
0.000358221
-7.41854e-05
0.000418219
-9.9828e-05
0.000453422
-0.000123002
0.000471224
-0.000141627
0.000476436
-0.000153526
0.000470583
-0.000156716
0.000455354
-0.000147208
0.0004216
-0.00012553
0.000391348
-7.88587e-05
0.000289393
-1.47057e-05
0.0002766
4.31013e-05
8.90574e-05
-6.90754e-06
0.000123279
-2.26477e-05
0.000277225
-4.33459e-05
0.000378919
-6.56125e-05
0.000440485
-8.65899e-05
0.000474399
-0.000103731
0.000488365
-0.000114606
0.000487311
-0.000116586
0.000472564
-0.00010716
0.000445928
-8.18181e-05
0.000396259
-3.82914e-05
0.000347821
3.03887e-05
0.000220713
0.000123043
0.000183946
-0.000104924
0.000271068
-6.19046e-06
0.000129469
-2.02091e-05
0.000291244
-3.82057e-05
0.000396916
-5.67171e-05
0.000458997
-7.26953e-05
0.000490378
-8.32983e-05
0.000498968
-8.56849e-05
0.000489698
-7.66915e-05
0.00046357
-5.30615e-05
0.000422298
-1.11504e-05
0.000354347
5.69257e-05
0.000279745
0.000157916
0.000119723
0.000281161
6.07012e-05
-0.000301275
0.000477512
-5.50145e-06
0.000134971
-1.77921e-05
0.000303535
-3.30063e-05
0.00041213
-4.75744e-05
0.000473565
-5.8223e-05
0.000501026
-6.17664e-05
0.000502512
-5.488e-05
0.000482811
-3.37879e-05
0.000442478
6.35123e-06
0.000382159
6.8757e-05
0.000291942
0.000161515
0.000186987
0.000297947
-1.67093e-05
0.000460544
-0.000101896
-0.000552312
0.000711582
-4.85357e-06
0.000139824
-1.54291e-05
0.00031411
-2.77984e-05
0.000424499
-3.82449e-05
0.000484012
-4.32267e-05
0.000506008
-3.91538e-05
0.000498439
-2.21255e-05
0.000465783
1.22466e-05
0.000408106
6.96694e-05
0.000324736
0.000155697
0.000205914
0.000278406
6.42781e-05
0.000453062
-0.000191366
0.000662549
-0.000311382
-0.000865107
0.000975344
-4.25796e-06
0.000144082
-1.31467e-05
0.000322999
-2.26212e-05
0.000433974
-2.87686e-05
0.000490159
-2.77246e-05
0.000504964
-1.54207e-05
0.000486135
1.27382e-05
0.000437624
6.20894e-05
0.000358755
0.000139299
0.000247527
0.000251005
9.42078e-05
0.000408707
-9.34237e-05
0.000625015
-0.000407674
0.000888634
-0.000575001
-0.00124582
0.00126934
-3.72325e-06
0.000147805
-1.09639e-05
0.00033024
-1.74984e-05
0.000440508
-1.9158e-05
0.000491819
-1.1689e-05
0.000497495
9.54952e-06
0.000464896
4.99572e-05
0.000397216
0.000115939
0.000292774
0.000215682
0.000147784
0.000356168
-4.62789e-05
0.00055402
-0.000291275
0.000815682
-0.000669337
0.00113986
-0.000899178
-0.00169763
0.00159167
-3.25501e-06
0.00015106
-8.8904e-06
0.000335875
-1.24349e-05
0.000444053
-9.39239e-06
0.000488776
4.96444e-06
0.000483138
3.59695e-05
0.000433891
8.99819e-05
0.000343204
0.000174613
0.000208142
0.00029992
2.24774e-05
0.000472914
-0.000219273
0.000715885
-0.000534246
0.0010268
-0.00098025
0.00141633
-0.00128872
-0.00221842
0.00193712
-2.85531e-06
0.000153916
-6.92483e-06
0.000339944
-7.41323e-06
0.000444541
5.94045e-07
0.000480769
2.23869e-05
0.000461345
6.41485e-05
0.00039213
0.000133381
0.000273971
0.000239064
0.000102459
0.000393321
-0.000131779
0.000603203
-0.000429156
0.000895418
-0.00082646
0.0012592
-0.00134403
0.00171621
-0.00174572
-0.00279887
0.00229666
-2.52224e-06
0.000156438
-5.05335e-06
0.000342476
-2.39097e-06
0.000441879
1.08921e-05
0.000467486
4.08044e-05
0.000431433
9.45198e-05
0.000338414
0.000180894
0.000187598
0.000310438
-2.70851e-05
0.000497273
-0.000318615
0.000748905
-0.000680788
0.00109294
-0.00117049
0.00151182
-0.00176292
0.00203434
-0.00226825
-0.00342223
0.0026577
-2.2496e-06
0.000158688
-3.24804e-06
0.000343474
2.70341e-06
0.000435927
2.16737e-05
0.000448516
6.05258e-05
0.000392581
0.000127635
0.000271305
0.00023341
8.18228e-05
0.000390017
-0.000183691
0.0006131
-0.000541699
0.000911215
-0.000978902
0.00130753
-0.0015668
0.00178074
-0.00223613
0.00236125
-0.00284876
-0.00406617
0.00300519
-2.02676e-06
0.000160714
-1.46328e-06
0.000342911
7.97063e-06
0.000426493
3.31423e-05
0.000423344
8.19423e-05
0.000343781
0.000164161
0.000189087
0.000291934
-4.59506e-05
0.000479101
-0.000370858
0.000741861
-0.000804458
0.00108998
-0.00132702
0.00153645
-0.00201328
0.00205877
-0.00275845
0.00268318
-0.00347318
-0.0047065
0.00332351
-1.83919e-06
0.000162553
3.63546e-07
0.000340708
1.35407e-05
0.000413316
4.5559e-05
0.000391326
0.000105524
0.000283816
0.000204855
8.97559e-05
0.000357514
-0.00019861
0.000578815
-0.00059216
0.000884062
-0.00110971
0.00128315
-0.00172611
0.0017746
-0.00250473
0.00233582
-0.00331966
0.00298388
-0.00412124
-0.00532132
0.0035987
-1.66972e-06
0.000164223
2.23373e-06
0.000336804
1.95707e-05
0.000395979
5.92337e-05
0.000351663
0.000131808
0.000211242
0.000250533
-2.8969e-05
0.000431143
-0.00037922
0.000689853
-0.000850869
0.00103923
-0.00145909
0.00148661
-0.00217349
0.00201436
-0.00303248
0.00259993
-0.00390523
0.00324772
-0.00476902
-0.00589414
0.00382053
-1.49377e-06
0.000165717
4.30908e-06
0.000331002
2.62486e-05
0.00037404
7.45181e-05
0.000303393
0.00016138
0.00012438
0.000302013
-0.000169602
0.000513624
-0.000590831
0.000812196
-0.00114944
0.00120544
-0.00185233
0.00169429
-0.00266233
0.00224625
-0.00358445
0.00283904
-0.00449801
0.00346287
-0.00539286
-0.00641507
0.0039838
-1.27879e-06
0.000166996
6.65978e-06
0.000323063
3.37805e-05
0.000346919
9.17938e-05
0.00024538
0.00019484
2.13341e-05
0.000360032
-0.000334794
0.000605386
-0.000836186
0.000944849
-0.0014889
0.00137896
-0.00228644
0.00189862
-0.00318199
0.00246036
-0.00414619
0.00304284
-0.0050805
0.00362327
-0.00597328
-0.00688031
0.00408851
-9.92736e-07
0.000167988
9.38375e-06
0.000312686
4.23869e-05
0.000313916
0.000111457
0.00017631
0.000232768
-9.99768e-05
0.00042515
-0.000527177
0.000706284
-0.00111732
0.00108563
-0.00186825
0.00155435
-0.00275516
0.00209143
-0.00371906
0.00264799
-0.00470275
0.00320433
-0.00563683
0.00372851
-0.00649747
-0.00729232
0.00414052
-5.97275e-07
0.000168586
1.25861e-05
0.000299503
5.2295e-05
0.000274207
0.000133898
9.47064e-05
0.000275669
-0.000241748
0.000497628
-0.000749136
0.000815391
-0.00143508
0.00123112
-0.00228399
0.00172506
-0.0032491
0.00226503
-0.00425903
0.00280287
-0.00524058
0.00332051
-0.00615448
0.00378263
-0.00695959
-0.0076679
0.00415822
-3.75044e-09
0.00016859
1.63734e-05
0.000283126
6.37291e-05
0.000226851
0.000159481
-1.0456e-06
0.000323917
-0.000406184
0.000577294
-0.00100251
0.000930858
-0.00178865
0.00137681
-0.00272994
0.0018843
-0.00375659
0.00241338
-0.00478811
0.0029216
-0.00574881
0.00339262
-0.00662551
0.00379897
-0.00736593
-0.00805386
0.00418492
6.21043e-07
0.000167968
2.08417e-05
0.000262905
7.69017e-05
0.000170791
0.000188516
-0.00011266
0.000377686
-0.000595354
0.000663421
-0.00128825
0.0010499
-0.00217512
0.00151752
-0.00319756
0.00202605
-0.00426512
0.00253266
-0.00529472
0.00300357
-0.00621972
0.0034252
-0.00704714
0.00379428
-0.007735
-0.00839739
0.00413782
1.47182e-06
0.000166497
2.6093e-05
0.000238284
9.20033e-05
0.000104881
0.000221231
-0.000241887
0.000436874
-0.000810997
0.000754643
-0.00160602
0.00116895
-0.00258943
0.00164809
-0.00367669
0.00214581
-0.00476284
0.00262142
-0.00577032
0.00305078
-0.00664908
0.00342723
-0.00742359
0.00375809
-0.00806586
-0.00870098
0.00406168
2.54691e-06
0.00016395
3.22138e-05
0.000208617
0.000109193
2.79015e-05
0.000257746
-0.00039044
0.000501035
-0.00105429
0.000848939
-0.00195392
0.00128403
-0.00302452
0.001764
-0.00415666
0.00224097
-0.00523982
0.0026802
-0.00620955
0.00306749
-0.00703637
0.00340286
-0.00775896
0.00370013
-0.00836313
-0.00897597
0.00397512
3.86543e-06
0.000160084
3.92772e-05
0.000173205
0.000128589
-6.14104e-05
0.000298035
-0.000559887
0.000569319
-0.00132557
0.000943743
-0.00232834
0.00139117
-0.00347195
0.00186191
-0.00462741
0.00231074
-0.00568865
0.00271121
-0.00661002
0.00305818
-0.00738335
0.00335741
-0.00805819
0.00362616
-0.00863188
-0.00922708
0.00387727
5.4461e-06
0.000154638
4.73417e-05
0.00013131
0.00015026
-0.000164329
0.000341893
-0.00075152
0.000640451
-0.00162413
0.00103615
-0.00272404
0.00148692
-0.00392272
0.00193986
-0.00508035
0.00235583
-0.00610462
0.00271751
-0.0069717
0.00302739
-0.00769322
0.00329546
-0.00832625
0.00354011
-0.00887654
-0.00945882
0.00377185
7.30454e-06
0.000147334
5.64495e-05
8.21649e-05
0.000174214
-0.000282093
0.000388899
-0.000966205
0.000712771
-0.001948
0.00112322
-0.0031345
0.00156862
-0.00436812
0.0019972
-0.00550893
0.00237804
-0.00648545
0.0027026
-0.00729626
0.0029793
-0.00796992
0.0032208
-0.00856775
0.00344522
-0.00910096
-0.00967437
0.00366077
9.4528e-06
0.000137881
6.66252e-05
2.49924e-05
0.000200387
-0.000415854
0.000438396
-0.00120421
0.000784339
-0.00229394
0.00120228
-0.00355243
0.00163464
-0.00480048
0.00203441
-0.00590871
0.00237977
-0.00683081
0.00266994
-0.00758644
0.00291753
-0.00821751
0.0031365
-0.00878672
0.00334377
-0.00930822
-0.00987596
0.00354535
1.18993e-05
0.000125982
7.78747e-05
-4.09829e-05
0.00022863
-0.000566609
0.000489485
-0.00146507
0.000853095
-0.00265755
0.00127116
-0.00397049
0.00168426
-0.00521359
0.00205275
-0.00627719
0.00236372
-0.00714178
0.00262276
-0.00784548
0.00284511
-0.00843986
0.00304494
-0.00898655
0.00323742
-0.0095007
-0.0100652
0.00342662
1.46492e-05
0.000111332
9.0184e-05
-0.000116518
0.000258692
-0.000735117
0.000541058
-0.00174744
0.000917047
-0.00303354
0.00132834
-0.00438179
0.00171764
-0.00560288
0.00205396
-0.00661351
0.00233257
-0.00742039
0.0025639
-0.00807681
0.00276449
-0.00864045
0.00294791
-0.00916997
0.00312736
-0.00968014
-0.010243
0.00330523
1.77039e-05
9.36284e-05
0.000103517
-0.000202331
0.000290208
-0.000921809
0.000591859
-0.00204909
0.000974444
-0.00341613
0.00137301
-0.00478035
0.0017355
-0.00596538
0.00204005
-0.00691806
0.00228887
-0.00766921
0.00249578
-0.00828372
0.0026776
-0.00882227
0.00284675
-0.00933912
0.00301443
-0.00984782
-0.0104103
0.00318167
2.10621e-05
7.25663e-05
0.000117812
-0.000299081
0.000322695
-0.00112669
0.000640573
-0.00236696
0.00102391
-0.00379946
0.00140492
-0.00516137
0.00173903
-0.00629948
0.00201307
-0.0071921
0.00223489
-0.00789104
0.00242042
-0.00846925
0.00258595
-0.0089878
0.00274246
-0.00949563
0.00289924
-0.0100046
-0.0105673
0.00305628
2.47191e-05
4.78473e-05
0.000132977
-0.000407339
0.000355559
-0.00134927
0.000685926
-0.00269733
0.00106448
-0.00417802
0.00142438
-0.00552126
0.00172963
-0.00660474
0.001975
-0.00743746
0.00217263
-0.00808866
0.00233945
-0.00863607
0.00249067
-0.00913903
0.00263573
-0.00964069
0.00278221
-0.0101511
-0.0107144
0.00292932
2.86672e-05
1.918e-05
0.000148879
-0.00052755
0.000388126
-0.00158852
0.000726779
-0.00303599
0.00109567
-0.00454691
0.00143202
-0.00585761
0.00170882
-0.00688155
0.00192767
-0.0076563
0.00210375
-0.00826475
0.00225415
-0.00878647
0.00239264
-0.00927752
0.00252711
-0.00977517
0.00266367
-0.0102876
-0.0108517
0.002801
3.28958e-05
-1.37158e-05
0.000165343
-0.000659998
0.000419672
-0.00184285
0.0007622
-0.00337851
0.00111733
-0.00490204
0.00142873
-0.00616901
0.00167812
-0.00713093
0.00187271
-0.0078509
0.00202966
-0.0084217
0.00216553
-0.00892233
0.00229248
-0.00940447
0.00241698
-0.00989966
0.00254386
-0.0104145
-0.0109794
0.00267149
3.73905e-05
-5.11062e-05
0.000182149
-0.000804757
0.000449473
-0.00211017
0.000791511
-0.00372055
0.00112967
-0.0052402
0.00141555
-0.00645489
0.00163895
-0.00735433
0.00181155
-0.0080235
0.00195152
-0.00856166
0.00207439
-0.00904521
0.00219071
-0.00952078
0.00230563
-0.0100146
0.00242298
-0.0105319
-0.0110973
0.00254095
4.21326e-05
-9.32389e-05
0.000199034
-0.000961658
0.000476841
-0.00238798
0.000814296
-0.00405801
0.00113312
-0.00555902
0.00139359
-0.00671536
0.00159267
-0.00755342
0.00174542
-0.00817625
0.00187023
-0.00868646
0.00198134
-0.00915632
0.00208767
-0.00962711
0.00219329
-0.0101202
0.00230118
-0.0106397
-0.0112057
0.0024095
4.70977e-05
-0.000140337
0.0002157
-0.00113026
0.000501167
-0.00267345
0.000830385
-0.00438722
0.00112829
-0.00585692
0.00136392
-0.00695099
0.00154047
-0.00772997
0.00167534
-0.00831112
0.00178653
-0.00879766
0.00188683
-0.00925661
0.00198364
-0.00972393
0.00208014
-0.0102167
0.00217863
-0.0107382
-0.0113043
0.00227728
5.22529e-05
-0.00019259
0.000231837
-0.00130984
0.000521953
-0.00296356
0.000839821
-0.00470509
0.00111586
-0.00613297
0.00132761
-0.00716274
0.00148342
-0.00788578
0.00160216
-0.00842986
0.00170102
-0.00889651
0.00179123
-0.00934682
0.00187886
-0.00981157
0.00196633
-0.0103042
0.00205543
-0.0108273
-0.0113933
0.0021444
5.75545e-05
-0.000250144
0.000247128
-0.00149942
0.000538827
-0.00325526
0.000842817
-0.00500908
0.00109661
-0.00638676
0.00128563
-0.00735176
0.00142243
-0.00802257
0.0015266
-0.00853403
0.00161415
-0.00898407
0.00169482
-0.00942749
0.0017735
-0.00989025
0.00185201
-0.0103827
0.00193172
-0.010907
-0.0114726
0.00201099
6.29462e-05
-0.00031309
0.00026127
-0.00169774
0.000551555
-0.00354555
0.000839708
-0.00529724
0.00107129
-0.00661834
0.00123889
-0.00751936
0.0013583
-0.00814198
0.00144921
-0.00862494
0.00152629
-0.00906115
0.00159782
-0.00949901
0.0016677
-0.00996013
0.00173728
-0.0104523
0.00180761
-0.0109774
-0.0115421
0.00187716
6.83583e-05
-0.000381449
0.000273984
-0.00190337
0.000560034
-0.0038316
0.000830916
-0.00556812
0.00104066
-0.00682809
0.00118819
-0.00766689
0.0012917
-0.00824549
0.00137047
-0.00870372
0.00143773
-0.0091284
0.00150041
-0.0095617
0.00156159
-0.0100213
0.00162225
-0.0105129
0.00168321
-0.0110383
-0.0116019
0.00174303
7.371e-05
-0.000455158
0.000285024
-0.00211468
0.000564276
-0.00411085
0.000816917
-0.00582076
0.00100544
-0.00701661
0.00113425
-0.0077957
0.00122319
-0.00833443
0.00129077
-0.0087713
0.0013487
-0.00918633
0.00140274
-0.00961574
0.00145528
-0.0100738
0.00150705
-0.0105647
0.00155863
-0.0110899
-0.011652
0.00160871
7.89119e-05
-0.00053407
0.000294187
-0.00232996
0.00056439
-0.00438105
0.000798209
-0.00605458
0.000966284
-0.00718468
0.00107769
-0.00790711
0.00115324
-0.00840997
0.00121039
-0.00882845
0.00125938
-0.00923532
0.00130494
-0.0096613
0.00134889
-0.0101178
0.00139175
-0.0106076
0.00143397
-0.0111321
-0.0116924
0.00147432
8.38715e-05
-0.000617942
0.000301317
-0.0025474
0.00056056
-0.00464029
0.0007753
-0.00626932
0.000923823
-0.0073332
0.00101907
-0.00800235
0.00108225
-0.00847316
0.00112959
-0.00887579
0.00116994
-0.00927567
0.00120712
-0.00969848
0.0012425
-0.0101532
0.00127647
-0.0106415
0.00130934
-0.011165
-0.011723
0.00133996
8.84967e-05
-0.000706439
0.000306305
-0.00276521
0.000553023
-0.00488701
0.000748684
-0.00646498
0.000878608
-0.00746313
0.000958836
-0.00808258
0.00101055
-0.00852487
0.00104858
-0.00891383
0.0010805
-0.00930759
0.00110937
-0.00972734
0.00113621
-0.01018
0.00116131
-0.0106666
0.00118484
-0.0111885
-0.0117439
0.00120576
9.27005e-05
-0.000799139
0.000309097
-0.00298161
0.000542054
-0.00511997
0.00071884
-0.00664177
0.000831139
-0.00757543
0.000897406
-0.00814885
0.000938389
-0.00856585
0.000967516
-0.00894295
0.000991175
-0.00933125
0.00101179
-0.00974796
0.00103011
-0.0101983
0.00104634
-0.0106829
0.00106056
-0.0112028
-0.0117552
0.00107182
9.64031e-05
-0.000895542
0.000309685
-0.00319489
0.000527947
-0.00533823
0.000686216
-0.00680003
0.000781858
-0.00767107
0.000835115
-0.0082021
0.000866006
-0.00859675
0.000886541
-0.00896349
0.000902062
-0.00934677
0.000914459
-0.00976035
0.000924279
-0.0102082
0.000931662
-0.0106902
0.000936611
-0.0112077
-0.0117568
0.000938264
9.95346e-05
-0.000995077
0.000308102
-0.00340346
0.000511006
-0.00554113
0.000651231
-0.00694026
0.000731156
-0.00775099
0.000772249
-0.00824319
0.000793578
-0.00861807
0.00080577
-0.00897568
0.000813244
-0.00935425
0.00081746
-0.00976457
0.000818803
-0.0102095
0.000817362
-0.0106888
0.000813074
-0.0112034
-0.0117489
0.000805185
0.000102035
-0.00109711
0.000304421
-0.00360584
0.000491534
-0.00572825
0.000614271
-0.007063
0.000679378
-0.0078161
0.000709058
-0.00827288
0.000721265
-0.00863028
0.000725311
-0.00897973
0.000724812
-0.00935375
0.000720879
-0.00976064
0.000713771
-0.0102024
0.000703537
-0.0106786
0.000690064
-0.0111899
-0.0117316
0.000672694
0.000103857
-0.00120097
0.000298742
-0.00380073
0.000469828
-0.00589933
0.000575687
-0.00716886
0.000626819
-0.00786723
0.000645746
-0.0082918
0.000649196
-0.00863373
0.00064525
-0.00897578
0.000636835
-0.00934533
0.000624784
-0.00974859
0.000609255
-0.0101869
0.000590262
-0.0106596
0.000567674
-0.0111674
-0.0117048
0.000540871
0.000104963
-0.00130593
0.000291187
-0.00398695
0.000446173
-0.00605432
0.000535795
-0.00725848
0.000573738
-0.00790518
0.000582486
-0.00830055
0.000577479
-0.00862872
0.000565665
-0.00896397
0.000549386
-0.00932905
0.00052925
-0.00972845
0.000505332
-0.0101629
0.000477612
-0.0106319
0.000445986
-0.0111357
-0.0116686
0.000409825
0.000105332
-0.00141126
0.000281894
-0.00416351
0.000420839
-0.00619327
0.000494881
-0.00733252
0.00052036
-0.00793066
0.000519427
-0.00829962
0.00050621
-0.00861551
0.000486628
-0.00894439
0.000462532
-0.00930496
0.000434347
-0.00970026
0.000402081
-0.0101307
0.000365673
-0.0105955
0.000325042
-0.0110951
-0.0116232
0.000279643
0.000104952
-0.00151622
0.000271011
-0.00432957
0.00039408
-0.00631633
0.000453198
-0.00739164
0.000466875
-0.00794433
0.000456693
-0.00828943
0.00043547
-0.00859428
0.000408205
-0.00891712
0.000376336
-0.00927309
0.000340145
-0.00966407
0.000299577
-0.0100901
0.000254561
-0.0105504
0.00020492
-0.0110455
-0.0115685
0.000150216
0.000103827
-0.00162004
0.000258701
-0.00448444
0.000366132
-0.00642376
0.000410973
-0.00743648
0.000413452
-0.00794681
0.00039439
-0.00827037
0.000365333
-0.00856523
0.000330458
-0.00888224
0.000290861
-0.00923349
0.000246707
-0.00961992
0.000197887
-0.0100413
0.000144376
-0.0104969
8.59412e-05
-0.010987
-0.0115032
2.06637e-05
0.00010197
-0.00172201
0.000245129
-0.0046276
0.000337214
-0.00651585
0.000368405
-0.00746767
0.000360231
-0.00793864
0.00033261
-0.00824275
0.000295862
-0.00852848
0.000253443
-0.00883983
0.000206168
-0.00918622
0.000154096
-0.00956785
9.70806e-05
-0.00998428
3.49056e-05
-0.0104347
-3.16494e-05
-0.0109205
-0.0114291
-0.000105712
9.9409e-05
-0.00182142
0.000230446
-0.00475864
0.000307527
-0.00659293
0.00032567
-0.00748581
0.000307336
-0.0079203
0.000271432
-0.00820685
0.000227114
-0.00848416
0.000177214
-0.00878993
0.00012231
-0.00913131
6.23566e-05
-0.00950789
-2.91154e-06
-0.00991901
-7.31452e-05
-0.0103645
-0.000149078
-0.0108445
-0.011347
-0.000231199
9.61774e-05
-0.0019176
0.0002148
-0.00487726
0.000277254
-0.00665539
0.000282923
-0.00749148
0.000254872
-0.00789225
0.000210922
-0.0081629
0.000159142
-0.00843238
0.00010182
-0.0087326
3.92979e-05
-0.00906879
-2.84224e-05
-0.00944017
-0.000101494
-0.00984594
-0.000180113
-0.0102859
-0.000264846
-0.0107598
-0.0112563
-0.000355595
9.23183e-05
-0.00200992
0.000198333
-0.00498328
0.000246561
-0.00670361
0.000240301
-0.00748522
0.000202927
-0.00785488
0.000151141
-0.00811111
9.19894e-05
-0.00837323
2.72489e-05
-0.00866786
-4.26966e-05
-0.00899885
-0.000118072
-0.0093648
-0.000199152
-0.00976486
-0.000286026
-0.010199
-0.000379259
-0.0106666
-0.0111569
-0.000478681
8.78799e-05
-0.0020978
0.000181181
-0.00507658
0.000215596
-0.00673803
0.000197922
-0.00746755
0.000151577
-0.00780853
9.21376e-05
-0.00805167
2.56309e-05
-0.00830672
-4.62661e-05
-0.00859597
-0.00012363
-0.00892148
-0.000206692
-0.00928174
-0.000295659
-0.00967589
-0.000390703
-0.010104
-0.000492307
-0.010565
-0.0110488
-0.000600338
8.29149e-05
-0.00218071
0.000163469
-0.00515713
0.000184494
-0.00675905
0.000155885
-0.00743894
0.000100893
-0.00775354
3.39276e-05
-0.00798471
-3.96702e-05
-0.00823313
-0.000118786
-0.00851685
-0.000203548
-0.00883672
-0.000294182
-0.0091911
-0.000390945
-0.00957913
-0.000494061
-0.0100009
-0.000603946
-0.0104551
-0.0109323
-0.000720468
7.74786e-05
-0.00225819
0.000145319
-0.00522497
0.000153378
-0.00676711
0.000114268
-0.00739983
5.09326e-05
-0.0076902
-2.33958e-05
-0.00791038
-0.000103991
-0.00815253
-0.000190303
-0.00843054
-0.000282367
-0.00874466
-0.000380482
-0.00909299
-0.000484945
-0.00947467
-0.000596026
-0.00988978
-0.000714107
-0.010337
-0.0108074
-0.000838998
7.16275e-05
-0.00232982
0.000126841
-0.00528019
0.00012236
-0.00676263
7.31494e-05
-0.00735062
1.19295e-06
-0.00761825
-7.97166e-05
-0.00782947
-0.000167348
-0.0080649
-0.00026075
-0.00833714
-0.000360032
-0.00864537
-0.000465536
-0.00898748
-0.000577599
-0.0093626
-0.000696537
-0.00977084
-0.00082272
-0.0102108
-0.0106743
-0.000955854
6.54181e-05
-0.00239524
0.000108143
-0.00532291
9.15316e-05
-0.00674602
3.26665e-05
-0.00729175
-4.65609e-05
-0.00753902
-0.000135104
-0.00774093
-0.000229684
-0.00797032
-0.000330085
-0.00823673
-0.000436496
-0.00853896
-0.000549293
-0.00887469
-0.000668847
-0.00924305
-0.000795529
-0.00964416
-0.000929716
-0.0100766
-0.010533
-0.00107097
5.89056e-05
-0.00245414
8.93233e-05
-0.00535333
6.09742e-05
-0.00671767
-7.18203e-06
-0.0072236
-9.39992e-05
-0.0074522
-0.000189515
-0.00764541
-0.000290954
-0.00786888
-0.000398265
-0.00812942
-0.000511713
-0.00842552
-0.0006317
-0.0087547
-0.000758632
-0.00911612
-0.000892941
-0.00950985
-0.00103503
-0.00993454
-0.0103838
-0.00118427
5.21427e-05
-0.00250629
7.04832e-05
-0.00537167
3.07642e-05
-0.00667795
-4.63173e-05
-0.00714652
-0.000140577
-0.00735794
-0.000242919
-0.00754307
-0.000351121
-0.00776068
-0.000465252
-0.00801529
-0.000585638
-0.00830513
-0.000712709
-0.00862763
-0.000846901
-0.00898192
-0.000988713
-0.00936804
-0.00113859
-0.00978467
-0.0102267
-0.0012957
4.51837e-05
-0.00255147
5.17216e-05
-0.00537821
1.0118e-06
-0.00662724
-8.47259e-05
-0.00706078
-0.000186229
-0.00725644
-0.000295284
-0.00743401
-0.000410152
-0.00764581
-0.000531007
-0.00789444
-0.000658229
-0.00817791
-0.000792273
-0.00849358
-0.000933602
-0.0088406
-0.00108279
-0.00921886
-0.00124033
-0.00962712
-0.0100618
-0.00140519
3.80918e-05
-0.00258956
3.31562e-05
-0.00537327
-2.83229e-05
-0.00656576
-0.000122369
-0.00696673
-0.000230924
-0.00714789
-0.000346583
-0.00731835
-0.000468014
-0.00752438
-0.000595494
-0.00776696
-0.000729445
-0.00804396
-0.000870346
-0.00835268
-0.00101868
-0.00869226
-0.0011751
-0.00906244
-0.0013402
-0.00946202
-0.00988933
-0.00151268
3.09293e-05
-0.00262049
1.50612e-05
-0.0053574
-5.70152e-05
-0.00649369
-0.000159223
-0.00686452
-0.000274641
-0.00703247
-0.000396788
-0.00719621
-0.000524678
-0.00739649
-0.000658676
-0.00763296
-0.000799246
-0.00790339
-0.000946887
-0.00820504
-0.0011021
-0.00853704
-0.00126561
-0.00889893
-0.00143813
-0.0092895
-0.00970934
-0.00161811
2.37021e-05
-0.00264419
-1.93924e-06
-0.00533176
-8.51136e-05
-0.00641051
-0.000195275
-0.00675436
-0.000317364
-0.00691038
-0.000445874
-0.0070677
-0.000580113
-0.00726225
-0.000720521
-0.00749255
-0.000867595
-0.00775631
-0.00102185
-0.00805078
-0.00118381
-0.00837509
-0.00135426
-0.00872848
-0.00153407
-0.0091097
-0.009522
-0.00172141
1.63304e-05
-0.00266052
-2.20056e-05
-0.00529343
-0.000112796
-0.00631972
-0.000230461
-0.0066367
-0.000359066
-0.00678178
-0.000493817
-0.00693295
-0.000634292
-0.00712177
-0.000780993
-0.00734585
-0.000934453
-0.00760285
-0.0010952
-0.00789003
-0.00126377
-0.00820652
-0.00144103
-0.00855123
-0.00162798
-0.00892275
-0.00932757
-0.00182241
8.96881e-06
-0.00266949
-4.04041e-05
-0.00524405
-0.00013988
-0.00622025
-0.000264758
-0.00651182
-0.000399723
-0.00664681
-0.000540592
-0.00679208
-0.000687186
-0.00697518
-0.000840061
-0.00719298
-0.000999783
-0.00744313
-0.0011669
-0.00772292
-0.00134194
-0.00803148
-0.00152586
-0.0083673
-0.00171978
-0.00872884
-0.00912631
-0.00192103
1.83553e-06
-0.00267133
-5.8198e-05
-0.00518402
-0.000166307
-0.00611214
-0.00029815
-0.00637998
-0.000439315
-0.00650565
-0.000586179
-0.00664521
-0.000738767
-0.00682259
-0.000897692
-0.00703405
-0.00106355
-0.00727727
-0.00123689
-0.00754958
-0.00141828
-0.00785009
-0.00160874
-0.00817685
-0.00180941
-0.00852816
-0.00891821
-0.00201751
-5.7304e-06
-0.0026656
-7.55328e-05
-0.00511422
-0.000192035
-0.00599564
-0.000330619
-0.00624139
-0.000477825
-0.00635844
-0.000630553
-0.00649249
-0.00078901
-0.00666414
-0.000953855
-0.00686921
-0.00112572
-0.00710541
-0.00130516
-0.00737013
-0.00149279
-0.00766246
-0.00168968
-0.00797995
-0.00189685
-0.00832099
-0.00870344
-0.00211163
-1.31232e-05
-0.00265247
-9.24308e-05
-0.00503491
-0.000217038
-0.00587103
-0.000362145
-0.00609629
-0.000515236
-0.00620535
-0.000673696
-0.00633403
-0.000837888
-0.00649994
-0.00100852
-0.00669858
-0.00118624
-0.00692769
-0.00137165
-0.00718472
-0.00156546
-0.00746866
-0.00176877
-0.00777664
-0.00198179
-0.00810797
-0.00848377
-0.00220146
-2.03158e-05
-0.00263216
-0.000108884
-0.00494634
-0.000241296
-0.00573862
-0.000392715
-0.00594487
-0.000551532
-0.00604653
-0.000715586
-0.00616997
-0.000885377
-0.00633015
-0.00106165
-0.0065223
-0.0012451
-0.00674424
-0.00143634
-0.00699348
-0.00163623
-0.00726877
-0.00184585
-0.00756702
-0.00206539
-0.00788844
-0.00826293
-0.00228622
-2.73484e-05
-0.00260481
-0.000124878
-0.00484881
-0.000264795
-0.0055987
-0.000422314
-0.00578735
-0.0005867
-0.00588214
-0.000756206
-0.00600047
-0.000931453
-0.00615491
-0.00111323
-0.00634053
-0.00130224
-0.00655523
-0.00149919
-0.00679653
-0.00170498
-0.00706298
-0.00192013
-0.00735187
-0.00214175
-0.00766681
-0.00801932
-0.00238536
-3.42194e-05
-0.00257059
-0.000140398
-0.00474263
-0.00028752
-0.00545158
-0.000450931
-0.00562394
-0.000620724
-0.00571235
-0.000795534
-0.00582566
-0.00097609
-0.00597435
-0.00116321
-0.0061534
-0.00135765
-0.00636079
-0.00156014
-0.00659404
-0.00177154
-0.00685158
-0.00199189
-0.00713153
-0.00222075
-0.00743795
-0.00777109
-0.00246898
-4.09191e-05
-0.00252967
-0.000155429
-0.00462812
-0.000309462
-0.00529754
-0.000478555
-0.00545484
-0.000653592
-0.00553731
-0.000833555
-0.00564569
-0.00101927
-0.00578864
-0.00121158
-0.00596109
-0.00141129
-0.00616109
-0.00161917
-0.00638616
-0.00183602
-0.00663473
-0.00206196
-0.00690558
-0.00229803
-0.00720188
-0.00751893
-0.00255019
-4.74357e-05
-0.00248223
-0.000169957
-0.0045056
-0.00033061
-0.00513689
-0.000505177
-0.00528028