/*--------------------------------*- C++ -*----------------------------------*\
  =========                 |
  \\      /  F ield         | OpenFOAM: The Open Source CFD Toolbox
   \\    /   O peration     | Website:  https://openfoam.org
    \\  /    A nd           | Version:  7
     \\/     M anipulation  |
\*---------------------------------------------------------------------------*/
FoamFile
{
    version     2.0;
    format      ascii;
    class       volVectorField;
    location    "30";
    object      U;
}
// * * * * * * * * * * * * * * * * * * * * * * * * * * * * * * * * * * * * * //

dimensions      [0 1 -1 0 0 0 0];

internalField   nonuniform List<vector> 
16660
(
(-0.0027112 0.00119171 2.0324e-22)
(-0.0146251 0.00238436 7.47304e-22)
(-0.033602 0.00291349 9.87096e-22)
(-0.0527581 0.003068 -2.4097e-22)
(-0.0718265 0.00301023 -2.47284e-22)
(-0.089468 0.00284914 -5.51095e-24)
(-0.105606 0.00264137 3.76219e-22)
(-0.120112 0.00241461 7.87383e-23)
(-0.133066 0.00218073 4.57013e-22)
(-0.144435 0.00193404 5.50532e-23)
(-0.154389 0.00170005 3.67426e-22)
(-0.162603 0.00142532 3.87233e-22)
(-0.170036 0.00130118 -6.36812e-23)
(-0.175206 0.0010104 2.55697e-22)
(-0.00282383 0.00364035 1.54301e-22)
(-0.0147887 0.00729905 -2.90106e-21)
(-0.0336962 0.00893316 4.54405e-22)
(-0.0527298 0.00941901 3.16388e-22)
(-0.0716347 0.0092556 1.28087e-21)
(-0.0890851 0.00877728 -5.25729e-22)
(-0.105007 0.00815749 -4.67667e-22)
(-0.119273 0.00747966 -1.31856e-21)
(-0.131963 0.00677834 1.7214e-22)
(-0.143036 0.00603361 4.02544e-22)
(-0.152684 0.00532225 -6.39619e-22)
(-0.160503 0.00447118 -5.86664e-22)
(-0.167595 0.00407597 -6.3021e-22)
(-0.1721 0.00313429 -6.77885e-22)
(-0.00304806 0.00605081 -2.24911e-22)
(-0.0151151 0.0121481 3.97276e-21)
(-0.0338844 0.0148801 -7.16107e-22)
(-0.0526731 0.0156979 2.74222e-21)
(-0.071251 0.0154324 1.51297e-21)
(-0.0883186 0.0146411 -1.36544e-22)
(-0.103807 0.0136139 5.80614e-23)
(-0.11759 0.01249 1.30411e-21)
(-0.129753 0.0113275 -1.60222e-21)
(-0.140229 0.0100893 -3.91975e-22)
(-0.149265 0.00890996 -2.28705e-22)
(-0.156285 0.00746399 1.86752e-21)
(-0.162709 0.00682048 -8.37845e-22)
(-0.165875 0.00514393 -6.10797e-22)
(-0.00338027 0.00839842 -5.98104e-22)
(-0.0156002 0.0168885 1.53542e-21)
(-0.0341648 0.0207064 -7.44635e-22)
(-0.0525881 0.0218567 -1.23931e-21)
(-0.0706766 0.0214948 2.52449e-22)
(-0.0871698 0.0203974 2.80577e-21)
(-0.102007 0.0189702 -2.91033e-21)
(-0.115062 0.0174085 -3.20944e-21)
(-0.12643 0.0157952 -2.8633e-22)
(-0.136 0.0140713 6.47011e-22)
(-0.144119 0.0124411 -1.12381e-21)
(-0.149913 0.0103703 -8.41877e-22)
(-0.155365 0.0095213 9.25283e-22)
(-0.156502 0.00696865 4.08475e-21)
(-0.00381515 0.0106599 -3.57865e-21)
(-0.0162382 0.021479 5.01462e-22)
(-0.0345348 0.0263651 -3.55826e-21)
(-0.052475 0.0278479 5.2616e-22)
(-0.0699134 0.0273968 -3.00066e-21)
(-0.0856406 0.0260023 8.69157e-22)
(-0.0996077 0.0241851 2.31846e-21)
(-0.111686 0.0221969 7.68797e-22)
(-0.121984 0.020147 1.1771e-21)
(-0.130329 0.0179487 -1.47962e-21)
(-0.137221 0.0158943 2.17719e-21)
(-0.14133 0.013159 -2.96522e-21)
(-0.14554 0.0121738 3.50895e-22)
(-0.143924 0.00854756 -3.62984e-21)
(-0.00434596 0.0128137 2.72869e-21)
(-0.0170215 0.0258806 -5.41242e-21)
(-0.0349908 0.031811 3.94017e-21)
(-0.0523334 0.0336248 -2.27507e-21)
(-0.068963 0.0330926 -1.78804e-21)
(-0.083733 0.0314118 -2.74084e-21)
(-0.0966081 0.0292166 -2.24967e-21)
(-0.107456 0.0268153 1.64526e-21)
(-0.116405 0.0243467 -3.92833e-22)
(-0.123182 0.0216889 2.40975e-21)
(-0.12854 0.0192478 -1.35477e-21)
(-0.130446 0.0158023 3.54185e-21)
(-0.13318 0.0147828 1.5615e-22)
(-0.128033 0.00983713 1.31198e-21)
(-0.0049647 0.0148409 7.14636e-22)
(-0.0179408 0.0300571 -1.66584e-22)
(-0.0355284 0.0370007 -4.39986e-21)
(-0.0521628 0.0391418 1.70655e-21)
(-0.0678272 0.0385365 2.35365e-21)
(-0.0814482 0.0365811 3.34688e-21)
(-0.0930068 0.0340212 1.76781e-21)
(-0.102362 0.0312224 4.24808e-22)
(-0.109672 0.0283558 -2.83332e-21)
(-0.114518 0.0252569 -3.94063e-22)
(-0.118028 0.0224783 -2.9192e-22)
(-0.117138 0.0182763 -4.99213e-21)
(-0.118196 0.0173605 3.95926e-22)
(-0.10865 0.0108215 -1.23978e-21)
(-0.00566247 0.0167249 2.85166e-22)
(-0.0189858 0.0339757 1.18282e-21)
(-0.036142 0.0418934 6.96764e-22)
(-0.0519618 0.0443544 2.74367e-21)
(-0.0665066 0.0436831 1.36219e-21)
(-0.0787862 0.041465 -4.83513e-21)
(-0.0887997 0.0385545 1.60781e-21)
(-0.0963908 0.035375 5.92607e-22)
(-0.101761 0.0321329 3.8184e-22)
(-0.104276 0.0286154 1.63835e-21)
(-0.105621 0.0255573 1.24574e-21)
(-0.10124 0.0205633 4.07396e-21)
(-0.100445 0.0199195 2.512e-21)
(-0.085495 0.0115301 -2.78436e-21)
(-0.00642973 0.0184523 3.31787e-21)
(-0.0201449 0.0376073 -4.62232e-21)
(-0.0368251 0.0464509 -8.6397e-22)
(-0.0517276 0.0492197 -3.51229e-21)
(-0.0650003 0.0484876 -3.0749e-22)
(-0.0757443 0.0460181 5.54434e-22)
(-0.0839784 0.0427712 2.37483e-22)
(-0.0895224 0.0392286 -5.76953e-21)
(-0.0926376 0.0356339 5.9137e-21)
(-0.092381 0.0317252 -3.48098e-22)
(-0.0912322 0.0284476 -3.55383e-22)
(-0.082545 0.0226555 -2.94646e-21)
(-0.0797124 0.0224432 2.14777e-21)
(-0.0581743 0.012084 -2.82508e-21)
(-0.00725667 0.020013 6.32346e-21)
(-0.0214055 0.040927 2.21154e-21)
(-0.0375698 0.0506383 -1.50901e-22)
(-0.0514556 0.0536968 -9.30723e-22)
(-0.0633047 0.0529059 5.65033e-21)
(-0.0723157 0.050195 -1.54638e-21)
(-0.0785281 0.0466251 1.19951e-21)
(-0.0817259 0.0427376 3.94344e-21)
(-0.0822509 0.038812 -2.49292e-21)
(-0.0787331 0.0345462 -1.40029e-21)
(-0.0747403 0.0310977 -6.96865e-22)
(-0.0608201 0.0245769 -5.26649e-21)
(-0.0556733 0.0247865 -3.04491e-21)
(-0.0262205 0.0127814 2.42299e-21)
(-0.00813358 0.0214 -7.07078e-21)
(-0.0227546 0.0439144 5.57282e-21)
(-0.0383665 0.0544243 -3.99553e-21)
(-0.0511387 0.0577473 6.16821e-21)
(-0.0614119 0.0568953 -6.63676e-22)
(-0.0684874 0.0539509 4.99222e-21)
(-0.0724246 0.0500704 1.21505e-21)
(-0.0729565 0.0458567 -2.80768e-21)
(-0.0705314 0.0416195 -3.16979e-21)
(-0.063208 0.0370425 -2.06766e-21)
(-0.0559623 0.0334216 3.2468e-23)
(-0.0358538 0.026439 6.89794e-21)
(-0.027833 0.0265979 -1.30026e-21)
(0.0107792 0.0140093 4.4034e-21)
(-0.00905112 0.02261 2.06071e-21)
(-0.0241784 0.0465533 3.1609e-21)
(-0.0392039 0.0577815 4.73472e-21)
(-0.050766 0.0613355 -8.78099e-21)
(-0.0593085 0.0604152 -6.50087e-21)
(-0.0642373 0.0572424 -3.77669e-21)
(-0.06563 0.0530622 -4.99199e-21)
(-0.0631495 0.0485423 2.93659e-21)
(-0.0573791 0.0440106 4.57993e-21)
(-0.0456633 0.039205 4.75139e-21)
(-0.0345963 0.0352703 -2.77103e-21)
(-0.00745242 0.0283964 -4.46541e-21)
(0.00423074 0.0279997 1.02948e-21)
(0.0538881 0.0155623 2.47354e-21)
(-0.0100007 0.0236426 -5.74423e-21)
(-0.0256628 0.0488326 -5.08411e-21)
(-0.040068 0.0606866 1.91154e-21)
(-0.0503217 0.0644289 -4.50619e-21)
(-0.0569728 0.0634272 2.62327e-21)
(-0.059531 0.0600283 4.96246e-21)
(-0.0580877 0.0555583 2.40509e-21)
(-0.052213 0.0507541 -1.66378e-21)
(-0.0426406 0.0459357 -2.55473e-21)
(-0.0259546 0.0410802 4.11563e-22)
(-0.0102578 0.0365592 1.55217e-21)
(0.0250117 0.030278 5.15412e-21)
(0.0405033 0.0294564 -3.04303e-22)
(0.104471 0.0173135 -5.48496e-21)
(-0.0109746 0.0245009 2.38644e-21)
(-0.0271932 0.0507455 -2.60971e-21)
(-0.0409419 0.0631207 -3.98272e-21)
(-0.0497839 0.0669991 6.55763e-21)
(-0.0543726 0.065897 -8.84851e-21)
(-0.0543177 0.0622714 -2.64633e-21)
(-0.049716 0.0575211 -4.42448e-21)
(-0.0400227 0.0524584 3.56979e-21)
(-0.0260767 0.047335 -3.98584e-21)
(-0.00381927 0.0426286 -4.51795e-21)
(0.017284 0.0374123 3.20606e-22)
(0.0624018 0.0319062 3.58644e-21)
(0.08139 0.030903 -5.59402e-22)
(0.163497 0.0196879 -2.11078e-21)
(-0.0119664 0.0251904 4.398e-21)
(-0.0287545 0.0522895 -6.40258e-22)
(-0.0418045 0.0650697 -1.27241e-21)
(-0.0491221 0.0690223 -1.83896e-21)
(-0.0514618 0.0677943 6.14913e-21)
(-0.0485249 0.0639394 7.09223e-22)
(-0.0404 0.0589202 1.1657e-21)
(-0.0264199 0.0536336 -4.78947e-21)
(-0.007434 0.0482182 9.13003e-22)
(0.0212165 0.0437576 -2.64686e-21)
(0.0484255 0.0379108 4.79639e-22)
(0.105387 0.0335469 -8.75806e-21)
(0.127581 0.0319957 -2.60567e-22)
(0.231864 0.0230366 4.68668e-21)
(-0.0129708 0.0257195 -4.8396e-22)
(-0.0303306 0.0534665 -2.7462e-21)
(-0.0426299 0.0665244 2.68452e-21)
(-0.0482957 0.0704797 -1.40113e-21)
(-0.0481769 0.0690952 2.19444e-21)
(-0.0420529 0.0650075 -5.74527e-22)
(-0.0299815 0.0597353 2.75438e-21)
(-0.0111624 0.0542666 2.41613e-21)
(0.013589 0.0486332 6.8601e-21)
(0.0496329 0.0445237 6.2763e-21)
(0.083861 0.0379789 1.77127e-21)
(0.154614 0.0355923 1.28425e-20)
(0.179935 0.0326008 -1.45127e-22)
(0.310179 0.0276206 5.22421e-22)
(-0.0139837 0.0260981 2.87315e-21)
(-0.0319042 0.0542817 7.064e-21)
(-0.043386 0.0674803 3.48289e-21)
(-0.0472513 0.0713586 5.12504e-21)
(-0.0444327 0.0697827 -5.38112e-21)
(-0.0347684 0.0654603 9.12588e-22)
(-0.0182558 0.0599596 1.00601e-21)
(0.00606538 0.0543604 5.36931e-21)
(0.0374424 0.0485943 -6.39756e-21)
(0.0819635 0.0450861 -3.35669e-21)
(0.124466 0.0376492 -2.57032e-21)
(0.210653 0.0383898 -2.42986e-21)
(0.239579 0.0329032 -2.44448e-22)
(0.398417 0.0336335 1.27294e-20)
(-0.0150024 0.0263378 -2.75296e-21)
(-0.0334562 0.0547438 -6.31828e-23)
(-0.0440328 0.067938 1.98304e-21)
(-0.0459203 0.0716529 -9.37652e-23)
(-0.040118 0.0698489 -3.91433e-22)
(-0.0264968 0.0652945 -3.02052e-21)
(-0.00495775 0.0596052 -2.95231e-22)
(0.0256493 0.0539571 -1.48891e-21)
(0.0646931 0.0481578 7.92916e-21)
(0.118845 0.0456052 -8.24725e-22)
(0.17128 0.0371514 -2.9654e-22)
(0.273824 0.0421667 -8.72975e-21)
(0.307864 0.0334741 2.90817e-22)
(0.495561 0.041201 -1.02918e-20)
(-0.0160248 0.0264509 8.57616e-22)
(-0.034965 0.0548641 -1.64627e-21)
(-0.0445216 0.0679034 -4.89509e-21)
(-0.0442153 0.0713637 -2.66898e-21)
(-0.0350911 0.069297 1.85825e-21)
(-0.017016 0.0645223 5.42731e-22)
(0.010248 0.0587055 3.36311e-21)
(0.0480643 0.0531303 -5.01814e-21)
(0.0960086 0.0474488 -4.01416e-21)
(0.160991 0.0462407 5.90131e-21)
(0.225434 0.0369509 8.81627e-22)
(0.344065 0.0469528 -2.94404e-21)
(0.386031 0.0352434 -1.42891e-22)
(0.599328 0.0503786 1.35613e-20)
(-0.0170495 0.0264497 2.73896e-22)
(-0.0364052 0.0546556 -3.01262e-22)
(-0.0447925 0.067387 3.92914e-22)
(-0.0420284 0.0705015 1.98812e-21)
(-0.0291745 0.0681422 -9.85584e-23)
(-0.00605055 0.0631746 4.9146e-21)
(0.027772 0.0573222 1.26754e-22)
(0.073878 0.051991 3.9407e-21)
(0.132139 0.0466669 1.01804e-21)
(0.209138 0.0471511 -3.95888e-21)
(0.287928 0.0377375 2.87162e-21)
(0.420916 0.0526031 1.98756e-20)
(0.474568 0.0392606 -1.49546e-21)
(0.70614 0.0611306 -2.81298e-20)
(-0.018075 0.0263464 -1.84167e-22)
(-0.0377471 0.0541329 -3.2642e-22)
(-0.0447732 0.0664048 6.44666e-22)
(-0.0392278 0.0690853 -2.94683e-21)
(-0.0221514 0.0664142 -1.50888e-21)
(0.00673382 0.0613049 -2.37993e-21)
(0.048101 0.0555502 -1.03083e-21)
(0.103742 0.0506948 -1.02304e-21)
(0.17387 0.0460917 9.57328e-23)
(0.263992 0.0485081 2.85908e-21)
(0.359273 0.0402888 -2.68789e-21)
(0.50358 0.0589658 -2.44061e-21)
(0.57248 0.046303 4.67982e-22)
(0.811479 0.0732557 3.58667e-20)
(-0.0190994 0.0261516 -1.90668e-21)
(-0.0389544 0.0533103 -5.57342e-22)
(-0.0443773 0.0649782 -7.53488e-24)
(-0.0356548 0.0671439 1.6012e-21)
(-0.0137627 0.0641601 1.77652e-21)
(0.0217317 0.0589923 -1.88799e-21)
(0.0717925 0.0535228 -3.36596e-21)
(0.138365 0.0494467 -8.5871e-22)
(0.221942 0.0460762 1.80532e-21)
(0.32612 0.0505484 -8.88935e-21)
(0.439123 0.0452219 -5.81379e-21)
(0.590928 0.0660736 -5.39601e-21)
(0.676849 0.0565479 2.46303e-21)
(0.910603 0.0862993 -3.86989e-20)
(-0.0201198 0.0258745 4.18389e-21)
(-0.0399839 0.0522024 -1.46957e-21)
(-0.0435027 0.0631338 4.11351e-22)
(-0.0311225 0.0647165 -9.76201e-23)
(-0.00370494 0.0614454 -6.58863e-22)
(0.0393962 0.0563454 -4.33019e-22)
(0.0994602 0.0514158 -1.57222e-21)
(0.178469 0.0485035 3.23527e-21)
(0.276938 0.0470163 -5.71387e-21)
(0.395782 0.0536294 4.56557e-21)
(0.526061 0.0527734 2.15608e-21)
(0.681358 0.0741639 1.67267e-21)
(0.783039 0.0695021 6.83956e-21)
(0.999369 0.0995563 3.48585e-20)
(-0.0211316 0.0255221 6.02165e-21)
(-0.0407869 0.0508271 4.64647e-21)
(-0.042027 0.0608989 2.66613e-21)
(-0.0254145 0.0618533 5.96088e-23)
(0.00836928 0.0583555 3.92378e-22)
(0.0602319 0.0535051 7.48735e-23)
(0.131747 0.0494505 -2.93679e-21)
(0.224717 0.0481731 -6.24097e-21)
(0.339148 0.0493 4.09906e-21)
(0.472667 0.0582109 -2.70152e-21)
(0.617681 0.0627514 8.26836e-21)
(0.772606 0.0834729 -5.93737e-21)
(0.885575 0.0842037 -1.26108e-20)
(1.07487 0.112212 7.58739e-21)
(-0.022127 0.0250997 -6.43326e-21)
(-0.0413062 0.0491999 5.05123e-21)
(-0.0398113 0.0583054 -2.21407e-21)
(-0.0182834 0.0586171 5.48704e-23)
(0.0228476 0.0549978 5.90413e-22)
(0.0847799 0.0506464 -1.26435e-21)
(0.169281 0.0478931 3.5003e-21)
(0.277606 0.0488068 -6.37609e-22)
(0.408423 0.0532576 -5.05025e-21)
(0.555646 0.0647205 1.23306e-20)
(0.710898 0.074659 -1.00982e-20)
(0.861777 0.0939827 1.32871e-20)
(0.979348 0.0995503 -1.85387e-21)
(1.1357 0.123535 -5.10371e-20)
(-0.0230945 0.024609 -9.29819e-21)
(-0.0414713 0.0473317 -8.54221e-21)
(-0.0367004 0.0553934 -5.28225e-21)
(-0.00945417 0.0550825 -8.50339e-22)
(0.0401511 0.0515019 7.91695e-22)
(0.113596 0.0479792 3.78143e-21)
(0.212618 0.0470501 2.57879e-21)
(0.337348 0.0507763 1.51455e-21)
(0.484046 0.0591221 1.34721e-20)
(0.642662 0.0733646 -3.28605e-21)
(0.802371 0.0878534 -4.00524e-22)
(0.945728 0.105349 -1.56626e-20)
(1.06057 0.114586 1.23771e-20)
(1.18196 0.132976 -9.04651e-21)
(-0.0240182 0.0240481 9.96729e-21)
(-0.0412023 0.0452338 5.02747e-21)
(-0.0325201 0.0522066 1.13072e-20)
(0.00137344 0.0513364 -1.00004e-21)
(0.0607233 0.0480209 -5.30409e-22)
(0.147215 0.045747 1.17003e-21)
(0.26216 0.0472553 -4.02837e-21)
(0.403732 0.054431 5.56463e-22)
(0.564641 0.0669934 -5.98451e-22)
(0.730905 0.0840126 -6.4151e-21)
(0.888942 0.101648 4.57715e-21)
(1.02166 0.117053 1.91683e-20)
(1.12717 0.128612 3.94217e-21)
(1.21492 0.140082 4.90101e-20)
(-0.0248748 0.023411 -1.81524e-20)
(-0.0404101 0.0429194 1.10823e-20)
(-0.0270785 0.0487927 -1.15976e-20)
(0.0145205 0.0474784 5.93562e-21)
(0.0850142 0.0447308 1.26428e-22)
(0.186109 0.0442234 1.67663e-22)
(0.31806 0.0488479 6.85149e-21)
(0.476009 0.0600361 7.28246e-21)
(0.648192 0.0767999 -8.75938e-21)
(0.817234 0.0962174 -3.69279e-21)
(0.968025 0.115386 -3.65711e-21)
(1.08757 0.128619 -3.56827e-20)
(1.17873 0.141026 3.05689e-20)
(1.23688 0.144282 -2.86737e-21)
(-0.0256322 0.0226879 -4.56019e-21)
(-0.0389961 0.0404043 -1.08716e-20)
(-0.0201688 0.045204 1.61235e-20)
(0.0303223 0.043621 -2.10352e-21)
(0.11346 0.0418311 -5.43474e-22)
(0.230631 0.0437045 -3.36746e-21)
(0.380118 0.0521371 1.47979e-21)
(0.552848 0.0677081 -9.60457e-21)
(0.732211 0.0882757 1.06005e-20)
(0.898703 0.109341 4.27126e-21)
(1.03786 0.128537 6.05467e-21)
(1.14245 0.13968 3.27268e-20)
(1.21632 0.151015 -1.80872e-20)
(1.25203 0.145542 5.95006e-21)
(-0.0262602 0.0218782 5.54021e-21)
(-0.036842 0.0376981 -1.00531e-20)
(-0.0115713 0.0414967 -2.60581e-23)
(0.0491191 0.0398906 3.18638e-21)
(0.146455 0.0395436 8.703e-22)
(0.280942 0.0444948 1.97932e-21)
(0.447696 0.0573565 -3.1768e-21)
(0.632388 0.0773705 -8.60216e-22)
(0.814061 0.100983 -1.30021e-20)
(0.97299 0.122714 -5.29707e-22)
(1.09757 0.140764 -1.33721e-20)
(1.18619 0.149813 -2.73457e-20)
(1.2424 0.157954 1.10391e-21)
(1.27273 0.151822 -6.51514e-20)
(-0.0267294 0.0209782 -1.1716e-20)
(-0.0338193 0.0348068 1.38817e-20)
(-0.00105405 0.0377359 1.01266e-20)
(0.0712466 0.0364288 -5.0768e-21)
(0.18432 0.0381103 -2.43856e-21)
(0.336943 0.0468832 4.85705e-22)
(0.51968 0.0646138 -1.81294e-21)
(0.712423 0.0887506 -3.24905e-21)
(0.891325 0.114387 -4.5483e-21)
(1.03861 0.135767 6.28533e-21)
(1.14703 0.151882 -6.5275e-21)
(1.21954 0.158517 9.52062e-21)
(1.26191 0.16392 -2.93056e-20)
(1.28418 0.156456 -4.05011e-21)
(-0.026996 0.0199759 2.74383e-20)
(-0.0297978 0.0317467 -1.41518e-20)
(0.0116205 0.033995 1.3721e-20)
(0.0970224 0.033393 -1.61457e-21)
(0.227256 0.0377883 1.75418e-22)
(0.398203 0.0511075 -9.49647e-22)
(0.594523 0.0738538 -2.98342e-21)
(0.79067 0.101425 -1.79735e-21)
(0.962108 0.127954 1.04303e-20)
(1.09491 0.148094 -9.37921e-21)
(1.18674 0.161755 -5.2423e-21)
(1.24439 0.165967 1.22281e-20)
(1.27501 0.168828 2.1825e-21)
(1.29053 0.160353 8.32735e-20)
(-0.0270106 0.0188613 1.9921e-20)
(-0.0246386 0.0285386 3.46078e-21)
(0.0266912 0.0303565 -3.47594e-20)
(0.126729 0.0309593 -1.1727e-21)
(0.275299 0.0388388 4.63725e-21)
(0.463921 0.0573122 6.16612e-22)
(0.670381 0.0848551 3.17257e-21)
(0.86506 0.114899 -1.42357e-21)
(1.02519 0.141231 9.53669e-21)
(1.14193 0.159446 5.91918e-23)
(1.21774 0.170399 9.71576e-21)
(1.26216 0.172286 7.29288e-21)
(1.28335 0.172936 4.71001e-20)
(1.29369 0.163602 1.38016e-22)
(-0.0267195 0.0176275 1.13133e-20)
(-0.0181952 0.0252086 9.10727e-21)
(0.0443933 0.0269149 2.66251e-20)
(0.160592 0.0293232 1.83134e-20)
(0.328271 0.0415053 -8.91232e-21)
(0.532943 0.0655122 -2.07407e-21)
(0.745323 0.0972646 2.3218e-21)
(0.933948 0.12869 7.03311e-21)
(1.08 0.153886 -3.97369e-21)
(1.18023 0.169712 1.13238e-20)
(1.24122 0.177904 1.38314e-20)
(1.27433 0.177657 2.40425e-21)
(1.28811 0.176431 3.47198e-20)
(1.29428 0.166401 -8.48813e-20)
(-0.0260652 0.0162707 -3.51735e-20)
(-0.010316 0.0217902 4.06172e-20)
(0.0649522 0.0237788 -2.21371e-20)
(0.198756 0.028699 -1.35123e-20)
(0.385731 0.0459836 -2.86775e-21)
(0.603835 0.075579 1.93014e-21)
(0.817546 0.110661 2.04037e-21)
(0.996225 0.142385 3.81911e-21)
(1.12654 0.16571 -4.90901e-21)
(1.21067 0.178887 -2.2943e-20)
(1.25844 0.184407 -7.56696e-21)
(1.28214 0.182267 2.25965e-20)
(1.29021 0.179468 -9.83971e-21)
(1.2933 0.168878 1.92027e-20)
(-0.0249862 0.0147912 6.74337e-20)
(-0.000847585 0.0183272 -4.15089e-20)
(0.0885751 0.0210742 2.50193e-20)
(0.241254 0.0293133 -4.96273e-21)
(0.446965 0.052387 4.41641e-21)
(0.675023 0.0872591 1.07928e-21)
(0.885551 0.124621 -1.33318e-21)
(1.05131 0.155672 5.01815e-21)
(1.16522 0.176602 6.10958e-21)
(1.23426 0.187036 -1.75255e-20)
(1.27057 0.190062 -1.20445e-20)
(1.28665 0.186289 -2.95009e-20)
(1.29041 0.182177 -8.61326e-20)
(1.29117 0.171155 5.69827e-20)
(-0.023418 0.0131938 -5.86838e-20)
(0.0103635 0.0148746 3.93157e-20)
(0.115441 0.0189474 6.96998e-21)
(0.287968 0.0313907 1.21731e-20)
(0.511008 0.0607199 -2.98622e-22)
(0.744955 0.100219 1.18369e-21)
(0.948239 0.13877 -6.48022e-21)
(1.09907 0.168339 -9.94706e-21)
(1.1967 0.186542 -1.03846e-20)
(1.25205 0.194267 5.90817e-20)
(1.27866 0.195029 1.60059e-20)
(1.28869 0.189872 1.97309e-20)
(1.28924 0.184663 -3.61087e-21)
(1.28829 0.173305 8.24403e-21)
(-0.0212939 0.011489 1.778e-20)
(0.0234673 0.011501 -6.92538e-20)
(0.145686 0.017567 -1.57019e-20)
(0.338608 0.0351308 1.02922e-20)
(0.576705 0.0708722 -6.2908e-21)
(0.812241 0.114099 -1.73276e-22)
(1.00492 0.152807 -2.25225e-21)
(1.13973 0.180268 1.20403e-20)
(1.22179 0.195573 2.38569e-20)
(1.26503 0.20071 -2.46272e-20)
(1.2836 0.199455 -3.23961e-21)
(1.2889 0.19314 -4.34248e-20)
(1.28711 0.187002 1.60132e-20)
(1.2849 0.175386 -6.38747e-20)
(-0.018546 0.00969319 -3.49578e-20)
(0.0386072 0.00828974 6.6962e-20)
(0.179389 0.0171232 -2.15871e-20)
(0.392691 0.0406791 -2.17217e-20)
(0.642814 0.0826383 5.74687e-22)
(0.875758 0.128558 -5.22014e-22)
(1.05529 0.166511 -2.74283e-21)
(1.17374 0.191409 -1.69018e-20)
(1.24134 0.20377 -4.39389e-20)
(1.27409 0.206496 1.65308e-21)
(1.28611 0.20347 -2.31073e-21)
(1.28779 0.196193 5.98646e-20)
(1.2843 0.189254 4.21489e-20)
(1.28115 0.177437 3.38303e-20)
(-0.0151063 0.00782888 2.70831e-20)
(0.0559162 0.00534061 1.94994e-20)
(0.216547 0.0178226 3.15133e-20)
(0.449554 0.0481027 2.70882e-20)
(0.708115 0.0957536 -3.13251e-21)
(0.934685 0.143303 1.10061e-21)
(1.09934 0.179736 3.84513e-21)
(1.20169 0.201767 -1.44251e-20)
(1.25618 0.211235 4.23146e-21)
(1.28001 0.211754 3.4948e-20)
(1.28678 0.207187 -2.36199e-20)
(1.28571 0.199107 2.86081e-20)
(1.281 0.191462 -5.15889e-20)
(1.27714 0.179482 -4.42392e-20)
(-0.0109075 0.00592489 -2.28311e-21)
(0.0755109 0.0027715 -2.91958e-20)
(0.25706 0.0198761 -3.39477e-20)
(0.508386 0.0573793 -6.87348e-21)
(0.771503 0.109934 8.366e-21)
(0.9885 0.158098 -7.52728e-22)
(1.13728 0.192394 2.54978e-21)
(1.22424 0.211384 -8.28769e-21)
(1.26708 0.218074 -4.57229e-20)
(1.28344 0.216602 -5.73546e-20)
(1.28607 0.210697 2.67065e-20)
(1.28293 0.20194 -1.91419e-20)
(1.27734 0.193655 2.56447e-20)
(1.27293 0.181537 5.09891e-20)
(-0.00588425 0.00401636 -2.01444e-20)
(0.0974855 0.000719482 -4.57327e-20)
(0.30071 0.0234801 4.35296e-20)
(0.568282 0.0684035 -7.98948e-21)
(0.832051 0.124909 -2.75107e-22)
(1.03695 0.172766 -4.05927e-22)
(1.16948 0.20445 7.66747e-23)
(1.24207 0.220323 2.41429e-20)
(1.27471 0.224396 -1.4937e-20)
(1.28492 0.22114 -3.83842e-20)
(1.2843 0.214072 5.33374e-20)
(1.27963 0.204732 -4.64531e-20)
(1.27341 0.195852 -2.69507e-20)
(1.26857 0.183612 -1.21153e-20)
(2.6065e-05 0.00214476 3.50132e-21)
(0.121903 -0.000659047 2.16626e-20)
(0.347162 0.0287954 3.51097e-20)
(0.628315 0.0810089 -4.80806e-21)
(0.889044 0.140439 1.34952e-20)
(1.07999 0.18718 1.90488e-21)
(1.19641 0.215901 -6.28959e-21)
(1.25582 0.228665 -2.07229e-20)
(1.27969 0.230302 3.94325e-20)
(1.28488 0.225456 4.94632e-20)
(1.28175 0.217371 6.97563e-20)
(1.27593 0.207512 3.96681e-20)
(1.26926 0.198066 -2.47256e-20)
(1.26407 0.185712 -5.09244e-20)
(0.00688234 0.000358184 6.29039e-21)
(0.148784 -0.00119018 1.01112e-20)
(0.395962 0.0359277 -8.74552e-20)
(0.687591 0.0949961 2.40396e-20)
(0.941977 0.156322 -1.45424e-20)
(1.11774 0.20126 -3.38514e-21)
(1.21857 0.226773 3.79907e-21)
(1.2661 0.236494 7.2397e-21)
(1.2825 0.235885 3.34886e-20)
(1.28365 0.22962 -8.20129e-20)
(1.2786 0.220633 -1.57968e-20)
(1.27192 0.210299 -4.27629e-20)
(1.26492 0.200305 6.14935e-20)
(1.25945 0.187839 -1.52388e-20)
(0.0147388 -0.00128817 1.02962e-20)
(0.1781 -0.000687343 -1.84428e-20)
(0.446566 0.0449179 3.10178e-20)
(0.745304 0.110157 -2.23319e-20)
(0.990539 0.172399 -2.20843e-20)
(1.15044 0.214956 -4.03439e-21)
(1.23647 0.237109 8.9353e-21)
(1.27344 0.243893 -1.3301e-20)
(1.28357 0.241225 -1.18464e-20)
(1.28149 0.233689 4.53802e-20)
(1.27497 0.22389 -6.34076e-21)
(1.26766 0.213105 3.48446e-20)
(1.26042 0.202572 -3.05932e-20)
(1.25471 0.189992 5.26497e-20)
(0.0236437 -0.00273143 -5.20059e-20)
(0.209761 0.00104036 3.19308e-20)
(0.498359 0.0557422 -2.25961e-20)
(0.800767 0.126293 3.27765e-21)
(1.03458 0.188543 2.97065e-20)
(1.1784 0.228246 2.42868e-21)
(1.25062 0.24696 -1.63674e-20)
(1.27832 0.250942 1.72176e-20)
(1.28323 0.246392 -5.56625e-21)
(1.27859 0.237705 -5.63726e-20)
(1.27097 0.22716 3.13006e-20)
(1.26318 0.215936 5.10996e-21)
(1.25576 0.204867 2.72587e-20)
(1.24985 0.192169 -8.98602e-21)
(0.0336375 -0.0039005 4.7374e-20)
(0.24361 0.0041767 8.0066e-21)
(0.550697 0.0683233 1.41431e-20)
(0.853429 0.143226 -1.23574e-20)
(1.07408 0.20466 -6.89648e-21)
(1.20197 0.24113 -2.48772e-21)
(1.26149 0.256386 -5.70115e-21)
(1.28114 0.257714 -2.0544e-20)
(1.28175 0.251441 1.72324e-20)
(1.27511 0.241701 2.62038e-20)
(1.26665 0.230458 -3.46745e-20)
(1.25851 0.218792 -2.1704e-20)
(1.25095 0.207189 8.73741e-20)
(1.24487 0.194366 5.40989e-20)
(0.0447505 -0.00471596 2.53268e-20)
(0.279428 0.00888537 -3.93538e-20)
(0.602934 0.082545 4.46298e-20)
(0.90287 0.160798 9.5886e-21)
(1.10912 0.220677 -2.23199e-21)
(1.22154 0.25362 -2.7156e-21)
(1.26951 0.265445 1.48289e-20)
(1.28223 0.264273 2.66155e-20)
(1.27934 0.256416 -4.24306e-20)
(1.27114 0.245698 3.26947e-20)
(1.26205 0.233788 -3.13803e-20)
(1.25364 0.221672 4.81192e-20)
(1.24599 0.209536 -5.64301e-20)
(1.23977 0.196578 2.22009e-20)
(0.0569993 -0.00509056 -4.9248e-20)
(0.31693 0.015298 -5.88968e-20)
(0.654455 0.0982683 5.84335e-21)
(0.948798 0.178876 7.37695e-21)
(1.13985 0.236543 9.57907e-21)
(1.23746 0.265738 3.40527e-22)
(1.27506 0.274194 3.29344e-21)
(1.28189 0.270673 -3.13267e-20)
(1.27616 0.261351 -5.56794e-21)
(1.26676 0.249711 2.3168e-20)
(1.2572 0.237152 2.68098e-20)
(1.24859 0.224572 -1.7385e-20)
(1.24088 0.211901 -7.46865e-20)
(1.23454 0.198799 -4.87736e-20)
(0.0703837 -0.00493071 -1.50324e-21)
(0.355781 0.0235056 6.68198e-20)
(0.704695 0.115344 2.66007e-20)
(0.991027 0.197345 -2.15244e-20)
(1.16647 0.252222 8.11589e-21)
(1.25011 0.277511 7.83493e-22)
(1.27848 0.282686 -5.23155e-21)
(1.28034 0.276958 2.72284e-20)
(1.27234 0.26627 2.05723e-20)
(1.26201 0.253745 -2.37401e-20)
(1.25211 0.240547 -3.91659e-21)
(1.24336 0.227487 2.78299e-20)
(1.23562 0.214281 4.01642e-20)
(1.22918 0.201023 1.3437e-20)
(0.0848831 -0.00413892 1.32464e-20)
(0.395603 0.0335542 -5.10207e-21)
(0.753153 0.13362 -5.07801e-20)
(1.02946 0.216106 -1.40625e-20)
(1.18922 0.267687 -1.8259e-20)
(1.25982 0.28897 -1.03968e-21)
(1.28005 0.290967 -2.85029e-21)
(1.27777 0.283164 -1.3519e-20)
(1.26797 0.271188 9.82313e-21)
(1.25694 0.257805 -1.91748e-20)
(1.2468 0.243968 1.16238e-20)
(1.23795 0.230409 -1.41221e-20)
(1.2302 0.216668 1.03287e-21)
(1.22369 0.203242 3.53958e-20)
(0.100454 -0.00261725 2.58367e-20)
(0.435997 0.0454461 -3.97884e-20)
(0.799405 0.152949 3.78012e-21)
(1.06409 0.235073 1.974e-20)
(1.20833 0.282922 1.39431e-20)
(1.2669 0.300144 1.30806e-21)
(1.28002 0.299077 -8.61026e-21)
(1.27431 0.289315 -4.04358e-21)
(1.2631 0.276113 1.32974e-20)
(1.25156 0.261885 1.72765e-20)
(1.24126 0.247408 -2.88748e-20)
(1.23235 0.23333 -3.58808e-20)
(1.22463 0.219056 1.31094e-20)
(1.21806 0.205448 -3.73032e-20)
(0.117028 -0.000271439 2.35715e-20)
(0.476547 0.0591444 1.40364e-20)
(0.843102 0.173186 2.79795e-20)
(1.09493 0.254171 -7.82391e-21)
(1.22405 0.297914 -5.39725e-21)
(1.27163 0.31106 -1.37683e-21)
(1.27861 0.307047 9.86878e-21)
(1.27009 0.29543 2.12662e-20)
(1.2578 0.281047 -2.19867e-20)
(1.24589 0.265981 2.17852e-20)
(1.23549 0.250855 4.06903e-20)
(1.22657 0.23624 4.07153e-20)
(1.21889 0.221435 -3.43238e-20)
(1.21229 0.207631 8.52021e-21)
(0.134513 0.00298471 -3.00936e-20)
(0.51684 0.0745789 1.18855e-20)
(0.883968 0.194196 -2.0026e-20)
(1.12206 0.27333 -3.26281e-21)
(1.23665 0.312658 6.53163e-21)
(1.27426 0.321745 -2.2294e-22)
(1.27598 0.314902 4.01293e-22)
(1.26519 0.301518 -1.05195e-20)
(1.25208 0.285987 1.62767e-20)
(1.23993 0.270083 -2.14614e-20)
(1.22949 0.254299 -2.30934e-20)
(1.22059 0.239129 -3.21708e-20)
(1.21299 0.223798 7.81162e-21)
(1.20637 0.209784 9.97365e-21)
(0.152793 0.00722512 1.69419e-21)
(0.556478 0.0916535 8.00765e-21)
(0.921797 0.215849 -1.23708e-20)
(1.1456 0.292485 -2.15899e-21)
(1.24634 0.327145 -1.13674e-21)
(1.27501 0.332216 3.51941e-22)
(1.27227 0.322658 2.30915e-21)
(1.25968 0.30758 8.62322e-21)
(1.24598 0.290924 -7.77891e-21)
(1.23369 0.274179 -1.21485e-20)
(1.22326 0.257726 2.7578e-21)
(1.21441 0.241987 1.63737e-21)
(1.20693 0.226133 2.95934e-20)
(1.20031 0.211895 -1.62931e-20)
(0.171731 0.012508 1.53802e-21)
(0.59508 0.110252 -3.2832e-21)
(0.956444 0.238021 6.92246e-21)
(1.16566 0.311577 3.16912e-21)
(1.25336 0.34137 -5.94681e-22)
(1.27408 0.342488 -1.51203e-23)
(1.26759 0.330324 -1.79961e-21)
(1.25361 0.313615 -4.43495e-22)
(1.23949 0.295848 1.27898e-21)
(1.22715 0.278255 8.3055e-21)
(1.21679 0.261124 2.89542e-22)
(1.20804 0.244802 7.61733e-22)
(1.20069 0.228431 -1.15249e-20)
(1.19411 0.213954 -6.775e-21)
(0.191173 0.0188733 1.35643e-21)
(0.632297 0.130242 -2.75586e-21)
(0.987817 0.260594 6.4558e-21)
(1.18239 0.330547 2.9613e-21)
(1.25792 0.355326 -4.35653e-22)
(1.27162 0.352571 -5.26569e-23)
(1.26205 0.337902 -1.94838e-21)
(1.247 0.319614 -8.59692e-22)
(1.23264 0.300744 1.74197e-21)
(1.22033 0.282296 8.81142e-21)
(1.21008 0.264477 -6.47943e-23)
(1.20147 0.247562 -4.88806e-23)
(1.19429 0.230681 -1.16686e-20)
(1.18776 0.21595 -6.39302e-21)
(0.210951 0.0263416 -3.30881e-22)
(0.667813 0.15148 8.60809e-21)
(1.01587 0.283455 -1.17001e-20)
(1.19594 0.349339 -2.34031e-21)
(1.2602 0.369004 1.62283e-22)
(1.26777 0.362467 1.57943e-21)
(1.2557 0.345389 3.84676e-21)
(1.23989 0.325562 1.29012e-20)
(1.22543 0.305595 -1.11485e-20)
(1.21322 0.286285 -1.80557e-20)
(1.20313 0.267771 7.89084e-21)
(1.1947 0.250254 1.27827e-21)
(1.18771 0.232869 2.6126e-20)
(1.18127 0.217873 -1.37261e-20)
(0.230886 0.034914 -3.49139e-20)
(0.701348 0.173815 1.5239e-20)
(1.04059 0.306494 -2.34564e-20)
(1.20647 0.367899 -1.59987e-21)
(1.26039 0.382391 5.11342e-22)
(1.26267 0.372174 1.22001e-21)
(1.2486 0.352774 -5.76185e-22)
(1.23229 0.331444 -1.3951e-20)
(1.21786 0.310382 1.8745e-20)
(1.20582 0.290204 -2.78802e-20)
(1.19593 0.270988 -3.33649e-20)
(1.18772 0.252866 -3.67796e-20)
(1.18097 0.234983 1.63571e-20)
(1.17465 0.219711 2.01841e-20)
(0.250794 0.0445728 1.99027e-20)
(0.732662 0.197089 1.73121e-20)
(1.06199 0.329606 2.9234e-20)
(1.21412 0.386173 -2.89455e-21)
(1.25863 0.395474 -3.33997e-22)
(1.25641 0.381685 -1.32712e-20)
(1.24081 0.360042 2.51768e-20)
(1.22423 0.33724 4.04449e-20)
(1.20992 0.315085 -4.01851e-20)
(1.19812 0.294034 3.16801e-20)
(1.18849 0.274113 6.00104e-20)
(1.18054 0.255382 6.12473e-20)
(1.17405 0.237007 -4.78334e-20)
(1.1679 0.221454 3.68997e-21)
(0.270488 0.0552831 2.55064e-20)
(0.761553 0.221139 -4.39538e-20)
(1.08013 0.352687 -2.70131e-22)
(1.21904 0.40411 1.5984e-20)
(1.25509 0.408233 -4.5737e-21)
(1.24908 0.390984 1.29455e-20)
(1.23236 0.367176 -1.57991e-20)
(1.21569 0.342926 -1.19931e-20)
(1.20162 0.319679 2.60296e-20)
(1.19012 0.297755 3.10642e-20)
(1.1808 0.277129 -4.004e-20)
(1.17315 0.257789 -5.646e-20)
(1.16697 0.238925 2.75246e-20)
(1.16102 0.223084 -5.01476e-20)
(0.289782 0.0669948 2.14605e-20)
(0.787855 0.245802 -7.72133e-21)
(1.09507 0.375633 -5.09638e-20)
(1.22139 0.421657 -9.96291e-21)
(1.24988 0.420647 1.15561e-20)
(1.24074 0.400056 -1.14585e-20)
(1.22327 0.37415 -1.17032e-20)
(1.20671 0.348477 -2.21547e-20)
(1.19296 0.324143 -3.36647e-21)
(1.18183 0.301347 -4.38715e-20)
(1.17287 0.280018 2.33996e-20)
(1.16556 0.260072 1.18946e-22)
(1.15972 0.240726 -4.06697e-21)
(1.15396 0.224584 4.04413e-20)
(0.308494 0.079644 -1.40587e-21)
(0.811443 0.270913 1.01802e-19)
(1.10687 0.398345 2.20568e-20)
(1.22131 0.438764 -6.75826e-21)
(1.24312 0.432691 -2.6188e-21)
(1.23148 0.408876 -2.67957e-20)
(1.21358 0.380939 -1.64058e-20)
(1.19727 0.353867 8.21906e-20)
(1.18395 0.328452 7.67701e-20)
(1.17325 0.30479 -9.97755e-20)
(1.16469 0.282764 9.06051e-21)
(1.15777 0.262216 4.92491e-20)
(1.15233 0.242413 6.98937e-20)
(1.14668 0.225962 2.7997e-20)
(0.326449 0.093155 -5.87518e-20)
(0.832226 0.296307 -9.62412e-20)