/*--------------------------------*- C++ -*----------------------------------*\
  =========                 |
  \\      /  F ield         | OpenFOAM: The Open Source CFD Toolbox
   \\    /   O peration     | Website:  https://openfoam.org
    \\  /    A nd           | Version:  7
     \\/     M anipulation  |
\*---------------------------------------------------------------------------*/
FoamFile
{
    version     2.0;
    format      ascii;
    class       surfaceScalarField;
    location    "15";
    object      phi;
}
// * * * * * * * * * * * * * * * * * * * * * * * * * * * * * * * * * * * * * //

dimensions      [0 3 -1 0 0 0 0];

internalField   nonuniform List<scalar> 
12526
(
2.23699e-05
1.80965e-05
1.28688e-05
6.2179e-06
6.65094e-06
-2.18978e-05
7.23599e-06
-5.85047e-07
-4.56315e-05
8.27215e-06
-8.8572e-06
3.50406e-05
-7.24e-05
-0.000185172
9.31651e-06
-1.81737e-05
3.91244e-05
-0.000102208
9.33444e-05
-0.000239392
-0.000434789
1.03603e-05
-2.8534e-05
4.31836e-05
-0.000135031
0.000102464
-0.000298673
-0.000525128
1.1397e-05
-3.99311e-05
4.71878e-05
-0.000170822
0.000111385
-0.00036287
0.000208551
-0.000622294
-0.000955738
1.24219e-05
-5.2353e-05
5.11139e-05
-0.000209514
0.00012005
-0.000431807
0.000223662
-0.000725905
0.000366693
-0.00109877
-0.00155735
1.34319e-05
-6.57849e-05
5.49438e-05
-0.000251026
0.000128413
-0.000505276
0.000238054
-0.000835546
0.000388184
-0.0012489
0.000582828
-0.00175199
-0.00235088
1.44241e-05
-8.0209e-05
5.86606e-05
-0.000295262
0.00013643
-0.000583045
0.000251652
-0.000950768
0.000408122
-0.00140537
0.000609006
-0.00195287
0.000856078
-0.00259795
-0.00334325
1.53952e-05
-9.56042e-05
6.22462e-05
-0.000342113
0.000144056
-0.000664854
0.000264375
-0.00107109
0.000426396
-0.00156739
0.000632363
-0.00215884
0.000882762
-0.00284835
0.00117523
-0.00363573
-0.00451729
1.63406e-05
-0.000111945
6.56785e-05
-0.000391451
0.000151237
-0.000750413
0.000276126
-0.00119598
0.000442861
-0.00173413
0.000652719
-0.0023687
0.000904921
-0.00310055
0.00119568
-0.00392649
0.00151721
-0.00483882
-0.00582747
1.72541e-05
-0.000129199
6.89302e-05
-0.000443127
0.000157909
-0.000839392
0.00028679
-0.00132486
0.000457343
-0.00190468
0.000669839
-0.00258119
0.000922262
-0.00335297
0.00120953
-0.00421376
0.00152286
-0.00515215
-0.00615377
0.00184915
1.81274e-05
-0.000147326
7.19683e-05
-0.000496968
0.000163998
-0.000931422
0.000296234
-0.00145709
0.000469644
-0.00207809
0.000683457
-0.00279501
0.000934453
-0.00360397
0.00121638
-0.00449569
0.00151965
-0.00545541
-0.00646525
0.00183114
1.89506e-05
-0.000166277
7.4755e-05
-0.000552773
0.00016942
-0.00102609
0.000304316
-0.00159199
0.000479551
-0.00225332
0.000693293
-0.00300875
0.000941161
-0.00385184
0.00121586
-0.00477038
0.00150718
-0.00574674
-0.00676027
0.00180219
1.97123e-05
-0.000185989
7.72484e-05
-0.000610309
0.000174084
-0.00112292
0.000310884
-0.00172879
0.000486848
-0.00242929
0.000699077
-0.00322098
0.000942087
-0.00409485
0.00120766
-0.00503596
0.0014852
-0.00602427
-0.00703721
0.00176214
2.04003e-05
-0.000206389
7.94041e-05
-0.000669313
0.000177899
-0.00122142
0.000315787
-0.00186668
0.000491329
-0.00260483
0.000700567
-0.00343022
0.000936988
-0.00433127
0.00119162
-0.00529059
0.00145362
-0.00628627
-0.00729462
0.00171103
2.10013e-05
-0.000227391
8.11767e-05
-0.000729488
0.000180772
-0.00132101
0.000318883
-0.00200479
0.000492808
-0.00277875
0.000697561
-0.00363497
0.000925697
-0.0045594
0.00116764
-0.00553253
0.00141252
-0.00653115
-0.00753126
0.00164916
2.15022e-05
-0.000248893
8.25214e-05
-0.000790507
0.000182617
-0.00142111
0.000320041
-0.00214221
0.000491128
-0.00294984
0.000689912
-0.00383375
0.000908131
-0.00477762
0.00113577
-0.00576017
0.00136216
-0.00675754
-0.0077461
0.001577
2.189e-05
-0.000270783
8.33959e-05
-0.000852013
0.000183352
-0.00152106
0.000319148
-0.00227801
0.000486167
-0.00311686
0.000677531
-0.00402512
0.000884293
-0.00498439
0.0010962
-0.00597207
0.0013029
-0.00696424
-0.00793836
0.00149516
2.21524e-05
-0.000292935
8.37612e-05
-0.000913622
0.00018291
-0.00162021
0.000316115
-0.00241121
0.000477843
-0.00327859
0.000660393
-0.00420767
0.000854278
-0.00517827
0.00104917
-0.00616696
0.00123525
-0.00715032
-0.0081075
0.00140439
2.2278e-05
-0.000315213
8.35831e-05
-0.000974927
0.000181231
-0.00171786
0.000310877
-0.00254086
0.000466118
-0.00343383
0.000638536
-0.00438008
0.000818259
-0.00535799
0.000995066
-0.00634377
0.0011598
-0.00731505
-0.00825321
0.0013055
2.22569e-05
-0.00033747
8.28332e-05
-0.0010355
0.000178275
-0.0018133
0.000303398
-0.00266598
0.000451
-0.00358143
0.000612062
-0.00454115
0.000776488
-0.00552242
0.00093433
-0.00650161
0.00107721
-0.00745793
-0.00837537
0.00119937
2.20808e-05
-0.000359551
8.14899e-05
-0.00109491
0.000174014
-0.00190583
0.000293669
-0.00278564
0.000432537
-0.0037203
0.00058113
-0.00468974
0.000729283
-0.00567057
0.000867469
-0.0066398
0.000988185
-0.00757865
-0.00847407
0.00108688
2.17426e-05
-0.000381294
7.95381e-05
-0.00115271
0.000168437
-0.00199473
0.000281711
-0.00289891
0.000410825
-0.00384941
0.000545954
-0.00482487
0.000677018
-0.00580164
0.000795043
-0.00675782
0.000893469
-0.00767707
-0.00854951
0.000968915
2.12378e-05
-0.000402531
7.69707e-05
-0.00120844
0.00016155
-0.00207931
0.000267574
-0.00300493
0.000385995
-0.00396783
0.000506793
-0.00494567
0.000620112
-0.00591496
0.000717639
-0.00685535
0.000793803
-0.00775324
-0.00860205
0.000846347
2.05636e-05
-0.000423095
7.37882e-05
-0.00126167
0.000153377
-0.00215889
0.000251334
-0.00310289
0.000358217
-0.00407472
0.000463946
-0.0050514
0.000559019
-0.00601003
0.000635867
-0.0069322
0.000689925
-0.0078073
-0.00863214
0.000720007
1.97194e-05
-0.000442814
6.99988e-05
-0.00131195
0.000143955
-0.00223285
0.000233092
-0.00319203
0.000327693
-0.00416932
0.000417747
-0.00514145
0.000494217
-0.0060865
0.000550341
-0.00698832
0.000582557
-0.00783951
-0.00864026
0.000590683
1.87067e-05
-0.000461521
6.56184e-05
-0.00135886
0.000133338
-0.00230057
0.000212972
-0.00327166
0.00029465
-0.004251
0.000368555
-0.00521536
0.000426202
-0.00614415
0.000461678
-0.0070238
0.000472395
-0.00785023
-0.00862698
0.000459109
1.75291e-05
-0.00047905
6.067e-05
-0.001402
0.000121595
-0.0023615
0.000191118
-0.00334119
0.000259341
-0.00431922
0.000316746
-0.00527276
0.000355479
-0.00618288
0.000370479
-0.0070388
0.000360101
-0.00783985
-0.00859284
0.000325967
1.61925e-05
-0.000495242
5.51835e-05
-0.00144099
0.000108806
-0.00241512
0.000167693
-0.00340007
0.000222034
-0.00437356
0.000262715
-0.00531344
0.000282557
-0.00620272
0.000277343
-0.00703358
0.000246292
-0.0078088
-0.0085384
0.000191848
1.47044e-05
-0.000509947
4.91948e-05
-0.00147548
9.50613e-05
-0.00246098
0.000142871
-0.00344788
0.000183014
-0.0044137
0.000206861
-0.00533729
0.000207948
-0.00620381
0.00018288
-0.00700851
0.000131578
-0.0077575
-0.00846353
5.67098e-05
1.30743e-05
-0.000523021
4.27454e-05
-0.00150515
8.04622e-05
-0.0024987
0.000116839
-0.00348426
0.00014257
-0.00443943
0.000149585
-0.0053443
0.000132145
-0.00618637
8.76764e-05
-0.00696405
1.71687e-05
-0.00768699
-0.00836921
-7.71544e-05
1.13133e-05
-0.000534335
3.58815e-05
-0.00152972
6.51158e-05
-0.00252794
8.97885e-05
-0.00350893
0.000100997
-0.00445064
9.1285e-05
-0.00533459
5.56323e-05
-0.00615072
-7.86778e-06
-0.00690055
-9.78783e-05
-0.00759698
-0.00825707
-0.000210018
9.43398e-06
-0.000543769
2.86525e-05
-0.00154894
4.91346e-05
-0.00254842
6.19178e-05
-0.00352171
5.85906e-05
-0.00444731
3.23544e-05
-0.00530836
-2.11112e-05
-0.00609725
-0.000103091
-0.00681857
-0.000211748
-0.00748832
-0.0081267
-0.000342117
7.45003e-06
-0.000551219
2.11109e-05
-0.0015626
3.26337e-05
-0.00255994
3.3423e-05
-0.0035225
1.5641e-05
-0.00442953
-2.68277e-05
-0.00526589
-9.76258e-05
-0.00602645
-0.000197523
-0.00671867
-0.000324313
-0.00736153
-0.0079784
-0.00047261
5.37651e-06
-0.000556595
1.33109e-05
-0.00157053
1.57289e-05
-0.00256236
4.50611e-06
-0.00351128
-2.75798e-05
-0.00439745
-8.59008e-05
-0.00520757
-0.000173469
-0.00593888
-0.000290656
-0.00660148
-0.000435095
-0.00721709
-0.00781245
-0.000601043
3.23199e-06
-0.000559827
5.30707e-06
-0.00157261
-1.45852e-06
-0.00255559
-2.46699e-05
-0.00348807
-7.08055e-05
-0.00435131
-0.000144521
-0.00513385
-0.000248223
-0.00583518
-0.000381997
-0.00646771
-0.000543581
-0.00705551
-0.00762904
-0.000726996
1.01747e-06
-0.000560845
-2.84956e-06
-0.00156874
-1.88415e-05
-0.0025396
-5.39065e-05
-0.003453
-0.000113789
-0.00429143
-0.000202379
-0.00504526
-0.000321502
-0.00571606
-0.000471067
-0.00631814
-0.000649237
-0.00687734
-0.00742819
-0.000850086
-1.26396e-06
-0.000559581
-1.11061e-05
-0.0015589
-3.62875e-05
-0.00251442
-8.30426e-05
-0.00340625
-0.000156309
-0.00421816
-0.0002592
-0.00494237
-0.000392964
-0.0055823
-0.00055741
-0.0061537
-0.000751513
-0.00668324
-0.00720974
-0.000969961
-3.53669e-06
-0.000556044
-1.94035e-05
-0.00154303
-5.37043e-05
-0.00248012
-0.000111926
-0.00334803
-0.00019817
-0.00413192
-0.000314755
-0.00482579
-0.000462328
-0.00543472
-0.00064062
-0.00597541
-0.000849777
-0.00647408
-0.00697352
-0.001086
-5.83885e-06
-0.000550205
-2.76969e-05
-0.00152117
-7.09957e-05
-0.00243682
-0.000140416
-0.00327861
-0.000239201
-0.00403313
-0.000368857
-0.00469613
-0.00052939
-0.00527419
-0.000720355
-0.00578444
-0.000943031
-0.0062514
-0.00671888
-0.00119767
-8.14375e-06
-0.000542061
-3.59378e-05
-0.00149338
-8.8071e-05
-0.00238469
-0.000168384
-0.0031983
-0.000279253
-0.00392226
-0.000421375
-0.00455401
-0.000594074
-0.00510149
-0.000796446
-0.00558207
-0.00103065
-0.0060172
-0.0064431
-0.00130644
-1.04355e-05
-0.000531626
-4.40785e-05
-0.00145974
-0.000104844
-0.00232392
-0.000195709
-0.00310743
-0.000318191
-0.00379978
-0.000472216
-0.00439998
-0.000656476
-0.00491723
-0.000869151
-0.00536939
-0.00110712
-0.00577923
-0.0061735
-0.00137672
-1.26998e-05
-0.000518926
-5.20739e-05
-0.00142036
-0.00012123
-0.00225477
-0.000222274
-0.00300639
-0.000355879
-0.00366618
-0.000521262
-0.0042346
-0.000716578
-0.00472191
-0.000939588
-0.00514638
-0.0011879
-0.00553092
-0.00589802
-0.00146337
-1.49228e-05
-0.000504003
-5.98805e-05
-0.0013754
-0.000137151
-0.0021775
-0.000247964
-0.00289557
-0.000392173
-0.00352197
-0.000568327
-0.00405845
-0.000774104
-0.00451614
-0.00100697
-0.00491352
-0.00126466
-0.00527323
-0.00561594
-0.00154674
-1.70913e-05
-0.000486912
-6.74576e-05
-0.00132504
-0.000152533
-0.00209242
-0.000272676
-0.00277543
-0.000426943
-0.0033677
-0.000613245
-0.00387214
-0.000828819
-0.00430056
-0.00107083
-0.00467151
-0.00133692
-0.00500714
-0.00532699
-0.00162588
-1.91932e-05
-0.000467719
-7.47676e-05
-0.00126946
-0.00016731
-0.00199988
-0.000296318
-0.00264642
-0.000460078
-0.00320394
-0.0006559
-0.00367632
-0.000880609
-0.00407585
-0.00113113
-0.00442099
-0.00140497
-0.00473329
-0.00503135
-0.00170061
-2.12172e-05
-0.000446502
-8.1776e-05
-0.0012089
-0.000181422
-0.00190023
-0.000318811
-0.00250903
-0.000491492
-0.00303126
-0.00069621
-0.00347161
-0.00092942
-0.00384264
-0.00118784
-0.00416257
-0.00146893
-0.0044522
-0.00472924
-0.00177104
-2.31528e-05
-0.000423349
-8.8452e-05
-0.00114361
-0.000194815
-0.00179387
-0.000340086
-0.00236376
-0.00052111
-0.00285023
-0.000734111
-0.0032586
-0.000975216
-0.00360154
-0.00124099
-0.00389679
-0.00152888
-0.00416432
-0.00442088
-0.00183724
-2.49906e-05
-0.000398358
-9.47674e-05
-0.00107383
-0.000207443
-0.00168119
-0.000360083
-0.00221112
-0.000548872
-0.00266145
-0.000769553
-0.00303792
-0.00101797
-0.00335312
-0.00129058
-0.00362418
-0.00158484
-0.00387006
-0.00410651
-0.00189921
-2.67219e-05
-0.000371636
-0.000100697
-0.000999854
-0.000219265
-0.00156262
-0.00037875
-0.00205164
-0.000574725
-0.00246547
-0.000802493
-0.00281016
-0.00105765
-0.00309796
-0.00133659
-0.00334525
-0.00163681
-0.00356984
-0.00378642
-0.0019569
-2.83389e-05
-0.000343297
-0.000106218
-0.000921975
-0.000230242
-0.0014386
-0.000396041
-0.00188584
-0.00059862
-0.00226289
-0.00083289
-0.00257589
-0.00109424
-0.00283662
-0.001379
-0.00306049
-0.00168476
-0.00326408
-0.00346093
-0.00201025
-2.98342e-05
-0.000313463
-0.000111309
-0.0008405
-0.00024034
-0.00130957
-0.000411915
-0.00171426
-0.000620516
-0.00205429
-0.000860705
-0.0023357
-0.00112769
-0.00256963
-0.00141778
-0.0027704
-0.00172865
-0.00295321
-0.0031304
-0.00205917
-3.12014e-05
-0.000282262
-0.000115953
-0.000755748
-0.000249531
-0.00117599
-0.000426333
-0.00153746
-0.000640373
-0.00184025
-0.000885902
-0.00209017
-0.00115798
-0.00229755
-0.0014529
-0.00247548
-0.00176842
-0.00263769
-0.00279524
-0.00210358
-3.24344e-05
-0.000249827
-0.000120131
-0.000668052
-0.000257784
-0.00103834
-0.000439261
-0.00135599
-0.000658155
-0.00162135
-0.000908446
-0.00183988
-0.00118507
-0.00202093
-0.00148431
-0.00217623
-0.00180403
-0.00231797
-0.00245589
-0.00214338
-3.35278e-05
-0.0002163
-0.000123829
-0.000577751
-0.000265077
-0.000897089
-0.000450667
-0.0011704
-0.000673829
-0.00139819
-0.000928304
-0.0015854
-0.00120892
-0.00174032
-0.00151199
-0.00187317
-0.00183541
-0.00199454
-0.00211282
-0.00217848
-3.44766e-05
-0.000181823
-0.000127032
-0.000485196
-0.000271386
-0.000752735
-0.000460525
-0.000981257
-0.000687362
-0.00117136
-0.000945445
-0.00132732
-0.00122952
-0.00145624
-0.00153588
-0.0015668
-0.00186252
-0.0016679
-0.00176653
-0.00220882
-3.52766e-05
-0.000146546
-0.000129729
-0.000390744
-0.000276692
-0.000605772
-0.000468807
-0.000789141
-0.000698729
-0.000941434
-0.000959839
-0.00106621
-0.00124681
-0.00116927
-0.00155596
-0.00125765
-0.00188532
-0.00133854
-0.00141753
-0.00223432
-3.5924e-05
-0.000110622
-0.000131908
-0.000294759
-0.000280976
-0.000456704
-0.000475492
-0.000594625
-0.000707901
-0.000709025
-0.000971459
-0.000802653
-0.00126079
-0.000879938
-0.00157221
-0.000946231
-0.00190379
-0.00100696
-0.00106634
-0.00225498
-3.64155e-05
-7.42069e-05
-0.000133561
-0.000197614
-0.000284224
-0.000306041
-0.00048056
-0.00039829
-0.000714857
-0.000474727
-0.00098028
-0.00053723
-0.00127142
-0.000588797
-0.00158461
-0.000633046
-0.00191792
-0.000673651
-0.000713465
-0.00227079
-3.67485e-05
-3.74583e-05
-0.000134681
-9.96813e-05
-0.000286423
-0.000154299
-0.000483992
-0.000200721
-0.000719575
-0.000239145
-0.000986276
-0.000270529
-0.00127867
-0.000296399
-0.00159311
-0.000318606
-0.0019277
-0.000339067
-0.00035936
-0.0022818
-3.69213e-05
-5.37079e-07
-0.000135261
-1.34166e-06
-0.000287564
-1.99609e-06
-0.000485776
-2.50821e-06
-0.000722035
-2.88563e-06
-0.000989421
-3.14255e-06
-0.00128251
-3.3055e-06
-0.0015977
-3.42399e-06
-0.00193317
-3.59724e-06
-4.00065e-06
-0.00228853
-3.69323e-05
3.63953e-05
-0.000135298
9.70239e-05
-0.000287639
0.000150345
-0.000485901
0.000195754
-0.000722223
0.000233436
-0.000989691
0.000264326
-0.0012829
0.000289904
-0.00159826
0.000311938
-0.00193407
0.000332205
0.000352092
-0.00229016
-3.67813e-05
7.31766e-05
-0.00013479
0.000195033
-0.000286645
0.0003022
-0.00048436
0.000393469
-0.000720127
0.000469203
-0.000987068
0.000531267
-0.0012798
0.000582632
-0.00159473
0.000626869
-0.00193013
0.000667608
0.000707707
-0.00228574
-3.64686e-05
0.000109645
-0.000133739
0.000292303
-0.000284584
0.000453045
-0.000481154
0.000590039
-0.000715747
0.000703795
-0.000981545
0.000797066
-0.00127319
0.000874272
-0.00158707
0.000940755
-0.00192142
0.00100195
0.00106215
-0.00227586
-3.59952e-05
0.00014564
-0.000132147
0.000388455
-0.000281459
0.000602357
-0.000476288
0.000784869
-0.000709085
0.000936592
-0.000973127
0.00106111
-0.00126308
0.00116422
-0.00157532
0.001253
-0.001908
0.00133463
0.00141479
-0.00226065
-3.53631e-05
0.000181003
-0.000130019
0.000483111
-0.000277279
0.000749617
-0.000469774
0.000977363
-0.000700157
0.00116698
-0.000961829
0.00132278
-0.0012495
0.00145189
-0.00155952
0.00156302
-0.00188996
0.00166507
0.00176508
-0.00224025
-3.45753e-05
0.000215579
-0.000127364
0.0005759
-0.000272058
0.000894311
-0.000461626
0.00116693
-0.000688981
0.00139433
-0.000947676
0.00158147
-0.00123248
0.00173669
-0.00153971
0.00187025
-0.00186737
0.00199273
0.00211249
-0.00221477
-3.36352e-05
0.000249214
-0.000124192
0.000666457
-0.000265812
0.00103593
-0.000451868
0.00135299
-0.000675583
0.00161804
-0.0009307
0.00183659
-0.00121206
0.00201805
-0.00151596
0.00217415
-0.00184031
0.00231708
0.0024565
-0.00218432
-3.25473e-05
0.000281761
-0.000120514
0.000754423
-0.00025856
0.00117398
-0.000440526
0.00153495
-0.000659994
0.00183751
-0.000910935
0.00208753
-0.00118828
0.0022954
-0.00148832
0.00247419
-0.00180886
0.00263762
0.00279665
-0.00214901
-3.13166e-05
0.000313078
-0.000116346
0.000839452
-0.000250327
0.00130796
-0.00042763
0.00171226
-0.00064225
0.00205213
-0.000888422
0.00233371
-0.0011612
0.00256817
-0.00145685
0.00276985
-0.00177311
0.00295388
0.00313249
-0.00210895
-2.99488e-05
0.000343027
-0.000111702
0.000921206
-0.000241139
0.00143739
-0.000413214
0.00188433
-0.000622389
0.00226131
-0.000863204
0.00257452
-0.00113085
0.00283582
-0.00142162
0.00306061
-0.00173314
0.00326541
0.00346361
-0.00206426
-2.84504e-05
0.000371477
-0.000106603
0.000999358
-0.000231025
0.00156182
-0.000397317
0.00205062
-0.000600454
0.00246444
-0.000835323
0.00280939
-0.00109729
0.00309779
-0.00138267
0.00334599
-0.00168902
0.00357175
0.00378962
-0.00201503
-2.68281e-05
0.000398305
-0.000101066
0.0010736
-0.00022002
0.00168077
-0.00037998
0.00221058
-0.00057649
0.00266095
-0.000804826
0.00303773
-0.00106056
0.00335352
-0.00134006
0.00362548
-0.0016408
0.0038725
0.00411019
-0.00196137
-2.50899e-05
0.000423395
-9.51155e-05
0.00114362
-0.000208158
0.00179381
-0.000361249
0.00236368
-0.000550545
0.00285025
-0.000771756
0.00325894
-0.0010207
0.00360247
-0.00129382
0.0038986
-0.00158855
0.00416723
0.004425
-0.00190336
-2.32438e-05
0.000446639
-8.87743e-05
0.00120915
-0.000195481
0.00190052
-0.000341175
0.00250937
-0.000522672
0.00303175
-0.000736162
0.00347243
-0.000977749
0.00384406
-0.00124398
0.00416483
-0.00153228
0.00445553
0.00473377
-0.00184106
-2.1299e-05
0.000467938
-8.20694e-05
0.00126992
-0.000182031
0.00200048
-0.000319812
0.00264715
-0.000492928
0.00320486
-0.000698093
0.00367759
-0.000931735
0.0040777
-0.00119056
0.00442365
-0.00147201
0.00473699
0.00503625
-0.00177449
-1.92654e-05
0.000487203
-7.50297e-05
0.00132569
-0.000167859
0.00209331
-0.000297225
0.00277652
-0.000461381
0.00336902
-0.000657605
0.00387382
-0.000882695
0.00430279
-0.00113355
0.00467451
-0.0014077
0.00501114
0.00533221
-0.00170366
-1.71536e-05
0.000504357
-6.76875e-05
0.00137622
-0.00015302
0.00217864
-0.000273484
0.00289698
-0.000428106
0.00352364
-0.000614767
0.00406048
-0.000830671
0.00451869
-0.00107297
0.00491681
-0.00133929
0.00527746
0.00562143
-0.00162851
-1.49752e-05
0.000519332
-6.0078e-05
0.00142132
-0.000137574
0.00225614
-0.000248671
0.00300808
-0.000393197
0.00366817
-0.000569665
0.00423695
-0.000775724
0.00472475
-0.00100881
0.00514989
-0.00126666
0.00553531
0.00590365
-0.00154888
-1.27427e-05
0.000532075
-5.22395e-05
0.00146082
-0.00012159
0.00232549
-0.000222882
0.00310937
-0.000356765
0.00380205
-0.000522422
0.0044026
-0.000717975
0.0049203
-0.000941152
0.00537307
-0.00118953
0.00578369
0.00617912
-0.001465
-1.04693e-05
0.000542544
-4.42134e-05
0.00149456
-0.000105143
0.00238642
-0.000196222
0.00320045
-0.000318945
0.00392477
-0.000473207
0.00455687
-0.000657666
0.00510476
-0.000870458
0.00558586
-0.00110842
0.00602165
0.00644822
-0.00137752
-8.16908e-06
0.000550713
-3.60436e-05
0.00152244
-8.83123e-05
0.00243869
-0.000168806
0.00328094
-0.000279881
0.00403585
-0.000422207
0.00469919
-0.000595077
0.00527763
-0.000797546
0.00578833
-0.00103171
0.00625582
0.00672374
-0.00130724
-5.85634e-06
0.00055657
-2.77756e-05
0.00154436
-7.11825e-05
0.00248209
-0.000140751
0.00335051
-0.00023971
0.0041348
-0.00036954
0.00482902
-0.000530219
0.00543831
-0.000721264
0.00597938
-0.000943895
0.00647845
0.00697808
-0.00119823
-3.54704e-06
0.000560117
-1.9457e-05
0.00156027
-5.38401e-05
0.00251648
-0.00011218
0.00340885
-0.000198567
0.00422119
-0.000315296
0.00494575
-0.000462987
0.005586
-0.000641335
0.00615772
-0.000850422
0.00668754
0.00721403
-0.00108637
-1.26787e-06
0.000561384
-1.11366e-05
0.00157014
-3.6376e-05
0.00254172
-8.3221e-05
0.0034557
-0.0001566
0.00429457
-0.000259607
0.00504876
-0.000393463
0.00571986
-0.000557939
0.0063222
-0.000751956
0.00688155
0.00743223
-0.000970157
1.01934e-06
0.000560365
-2.85916e-06
0.00157402
-1.88867e-05
0.00255774
-5.40146e-05
0.00349082
-0.000113981
0.00435454
-0.000202659
0.00513744
-0.000321849
0.00583905
-0.000471423
0.00647177
-0.000649501
0.00705963
0.00763286
-0.000850131
3.23894e-06
0.000557126
5.31622e-06
0.00157194
-1.4643e-06
0.00256452
-2.47135e-05
0.00351407
-7.0906e-05
0.00440073
-0.000144684
0.00521121
-0.000248429
0.00594279
-0.000382196
0.00660554
-0.000543687
0.00722112
0.00781608
-0.000726914
5.38786e-06
0.000551738
1.33367e-05
0.00156399
1.57586e-05
0.0025621
4.52136e-06
0.00352531
-2.75963e-05
0.00443285
-8.59554e-05
0.00526957
-0.000173547
0.00603038
-0.000290714
0.00672271
-0.000435064
0.00736547
0.00798188
-0.000600856
7.46514e-06
0.000544273
2.11512e-05
0.0015503
3.26949e-05
0.00255056
3.34912e-05
0.00352451
1.57007e-05
0.00445064
-2.67836e-05
0.00531206
-9.75869e-05
0.00610119
-0.000197456
0.00682258
-0.000324163
0.00749218
0.00813005
-0.000472334
9.45225e-06
0.000534821
2.87054e-05
0.00153105
4.92234e-05
0.00253004
6.20331e-05
0.00351171
5.8719e-05
0.00445395
3.24875e-05
0.00533829
-2.09675e-05
0.00615464
-0.000102912
0.00690452
-0.000211495
0.00760076
0.00826032
-0.000341766
1.13342e-05
0.000523487
3.59449e-05
0.00150644
6.52286e-05
0.00250076
8.99453e-05
0.00348699
0.000101187
0.00444271
9.14976e-05
0.00534798
5.58694e-05
0.00619027
-7.59099e-06
0.00696798
-9.75347e-05
0.00769071
0.00837238
-0.000209601
1.30972e-05
0.00051039
4.28176e-05
0.00147672
8.05952e-05
0.00246298
0.000117031
0.00345055
0.000142813
0.00441693
0.000149868
0.00534092
0.000132465
0.00620767
8.80396e-05
0.00701241
1.758e-05
0.00776116
0.00846665
-7.6686e-05
1.47288e-05
0.000495661
4.9274e-05
0.00144217
9.52111e-05
0.00241704
0.000143094
0.00340267
0.000183303
0.00437672
0.000207206
0.00531702
0.000208341
0.00620654
0.000183321
0.00703743
0.000132069
0.00781242
0.00854148
5.72406e-05
1.6218e-05
0.000479443
5.5268e-05
0.00140312
0.000108969
0.00236334
0.000167941
0.0033437
0.000222363
0.0043223
0.000263113
0.00527627
0.000283014
0.00618664
0.000277851
0.00704259
0.000246844
0.00784342
0.0085959
0.000192423
1.75553e-05
0.000461887
6.07585e-05
0.00135992
0.000121769
0.00230233
0.000191387
0.00327408
0.000259702
0.00425398
0.00031719
0.00521878
0.000355992
0.00614784
0.000371047
0.00702754
0.000360708
0.00785376
0.00863002
0.000326588
1.87331e-05
0.000443154
6.57094e-05
0.00131294
0.00013352
0.00223452
0.000213257
0.00319434
0.000295039
0.0041722
0.000369037
0.00514478
0.000426763
0.00609011
0.000462298
0.006992
0.000473053
0.00784301
0.0086433
0.000459773
1.97458e-05
0.000423408
7.00911e-05
0.0012626
0.000144142
0.00216047
0.000233389
0.0031051
0.000328103
0.00407749
0.000418262
0.00505462
0.000494819
0.00601355
0.000551008
0.00693581
0.000583261
0.00781076
0.00863517
0.000591387
2.05897e-05
0.000402819
7.38807e-05
0.00120931
0.000153566
0.00208078
0.000251639
0.00300702
0.000358643
0.00397048
0.000464486
0.00494878
0.000559655
0.00591838
0.000636573
0.00685889
0.000690671
0.00775666
0.00860509
0.000720751
2.12633e-05
0.000381555
7.70624e-05
0.00115351
0.00016174
0.00199611
0.000267884
0.00290088
0.000386432
0.00385193
0.000507352
0.00482786
0.000620776
0.00580496
0.000718381
0.00676129
0.000794587
0.00768045
0.00855255
0.000847129
2.17674e-05
0.000359788
7.96282e-05
0.00109565
0.000168626
0.00190711
0.000282022
0.00278748
0.000411268
0.00372269
0.000546527
0.0046926
0.000677705
0.00567378
0.000795814
0.00664318
0.000894287
0.00758198
0.0084771
0.000969734
2.21046e-05
0.000337683
8.15776e-05
0.00103618
0.0001742
0.00181449
0.000293978
0.0026677
0.000432983
0.00358368
0.000581712
0.00454387
0.000729986
0.00552551
0.000868264
0.0065049
0.000989034
0.00746121
0.00837841
0.00108773
2.22797e-05
0.000315404
8.2918e-05
0.000975537
0.000178456
0.00171895
0.000303703
0.00254246
0.000451444
0.00343594
0.000612647
0.00438267
0.000777202
0.00536095
0.000935145
0.00634696
0.00107808
0.00731827
0.00825623
0.00120026
2.22996e-05
0.000293104
8.36644e-05
0.000914172
0.000181407
0.00162121
0.000311176
0.00241269
0.000466557
0.00328056
0.00063912
0.00421011
0.000818978
0.0051811
0.000995895
0.00617004
0.0011607
0.00715347
0.00811051
0.00130642
2.21727e-05
0.000270931
8.38387e-05
0.000852506
0.000183079
0.00152197
0.000316405
0.00227936
0.000478274
0.00311869
0.000660972
0.00402741
0.000854998
0.00498707
0.00105001
0.00597503
0.00123617
0.00696731
0.00794134
0.00140534
2.1909e-05
0.000249022
8.34692e-05
0.000790946
0.000183514
0.00142192
0.000319428
0.00214345
0.000486587
0.00295153
0.000678101
0.00383589
0.00088501
0.00478016
0.00109704
0.005763
0.00130383
0.00676052
0.00774904
0.00149613
2.15199e-05
0.000227503
8.25903e-05
0.000729876
0.00018277
0.00132174
0.000320309
0.00200591
0.000491534
0.00278031
0.00069047
0.00363696
0.000908839
0.00456179
0.00113662
0.00553523
0.0013631
0.00653403
0.00753415
0.00157799
2.10176e-05
0.000206485
8.1241e-05
0.000669652
0.000180917
0.00122207
0.000319138
0.00186769
0.000493198
0.00260625
0.000698103
0.00343205
0.000926392
0.0043335
0.00116847
0.00529315
0.00141347
0.00628904
0.00729745
0.00165017
2.04152e-05
0.00018607
7.94638e-05
0.000610604
0.000178034
0.00112349
0.000316028
0.0017297
0.000491701
0.00243058
0.000701089
0.00322267
0.000937666
0.00409693
0.00119244
0.00503838
0.00145456
0.00602692
0.00703996
0.00171205
1.9726e-05
0.000166344
7.73035e-05
0.000553026
0.00017421
0.00102659
0.00031111
0.0015928
0.000487201
0.00225448
0.000699577
0.00301029
0.000942743
0.00385376
0.00120847
0.00477265
0.00148613
0.00574926
0.00676293
0.00176316
1.89629e-05
0.000147381
7.48054e-05
0.000497184
0.000169536
0.000931857
0.000304527
0.0014578
0.000479884
0.00207913
0.000693769
0.0027964
0.000941793
0.00360573
0.00121664
0.0044978
0.0015081
0.0054578
0.00646781
0.00180321
1.81384e-05
0.000129242
7.20142e-05
0.000443308
0.000164105
0.000839766
0.00029643
0.00132548
0.000469956
0.0019056
0.000683907
0.00258245
0.000935057
0.00335459
0.00121714
0.00421571
0.00152055
0.00515439
0.00615622
0.00183215
1.7264e-05
0.000111978
6.89716e-05
0.0003916
0.000158007
0.000750731
0.00028697
0.00119652
0.000457633
0.00173494
0.000670262
0.00236982
0.000922835
0.00310201
0.00121026
0.00392828
0.00152374
0.00484092
0.0058298
0.00185015
1.63494e-05
9.56291e-05
6.57157e-05
0.000342234
0.000151325
0.000665121
0.000276291
0.00107155
0.000443129
0.0015681
0.000653113
0.00215984
0.000905461
0.00284966
0.00119638
0.00363737
0.00151806
1.54029e-05
8.02262e-05
6.22794e-05
0.000295357
0.000144135
0.000583265
0.000264525
0.000951162
0.000426641
0.00140598
0.000632729
0.00195375
0.000883268
0.00259912
0.00334474
1.44308e-05
6.57954e-05
5.86899e-05
0.000251098
0.000136501
0.000505454
0.000251787
0.000835876
0.000408346
0.00124943
0.000609342
0.00175276
0.00085655
0.00235192
1.34377e-05
5.23577e-05
5.49695e-05
0.000209566
0.000128476
0.000431947
0.000238175
0.000726176
0.000388387
0.00109921
0.000583136
0.00155801
1.24269e-05
3.99309e-05
5.11364e-05
0.000170857
0.000120106
0.000362977
0.00022377
0.000622512
0.000366876
0.000956109
1.14012e-05
2.85297e-05
4.72072e-05
0.000135051
0.000111434
0.00029875
0.000208647
0.0005253
1.03638e-05
1.81658e-05
4.32003e-05
0.000102214
0.000102506
0.000239444
0.000434919
9.31942e-06
8.84641e-06
3.91387e-05
7.23952e-05
9.33814e-05
0.000185201
8.27454e-06
5.71866e-07
3.50527e-05
4.56171e-05
7.23793e-06
-6.66606e-06
2.18752e-05
6.21945e-06
-1.28855e-05
-1.81144e-05
0.00676057
0.00120889
-0.00677009
0.00673718
0.0013289
0.00669893
0.00144263
0.00664491
0.00154918
0.00657428
0.00164763
0.00648634
0.0017371
0.00638058
0.00181679
0.0062567
0.00188602
0.00611464
0.00194425
0.00595467
0.00199111
0.00202649
0.00707057
0.00120173
-0.00706341
0.00706619
0.00133328
0.0070492
0.00145962
0.00701857
0.00157982
0.00697327
0.00169292
0.0069124
0.00179797
0.00683513
0.00189406
0.00674081
0.00198034
0.006629
0.00205606
0.0064995
0.00212061
0.00217359
0.00735143
0.00118028
-0.00732997
0.00736386
0.00132085
0.00736618
0.0014573
0.0073573
0.0015887
0.00733608
0.00171413
0.00730144
0.00183262
0.00725231
0.00194319
0.00718774
0.00204491
0.0071069
0.0021369
0.00700915
0.00221836
0.00228866
0.00760943
0.00114781
-0.00757695
0.00763535
0.00129493
0.0076537
0.00143894
0.00766341
0.001579
0.0076633
0.00171423
0.00765222
0.0018437
0.00762895
0.00196645
0.00759234
0.00208152
0.00754129
0.00218795
0.00747481
0.00228484
0.00237138
0.00785222
0.00110765
-0.00781206
0.00788813
0.00125903
0.00791888
0.00140819
0.00794349
0.00155439
0.00796087
0.00169685
0.00796987
0.0018347
0.00796928
0.00196705
0.00795784
0.00209296
0.0079343
0.00221148
0.00789748
0.00232166
0.00242261
0.00808673
0.0010627
-0.00804179
0.00812937
0.00121638
0.008169
0.00136857
0.00820476
0.00151863
0.00823573
0.00166588
0.00826086
0.00180958
0.008279
0.00194891
0.00828894
0.00208302
0.00828942
0.00221101
0.00827913
0.00233195
0.00244494
0.00831851
0.00101528
-0.00827109
0.0083652
0.0011697
0.00841062
0.00132315
0.00845411
0.00147514
0.00849492
0.00162507
0.00853217
0.00177232
0.00856487
0.0019162
0.00859194
0.00205595
0.00861218
0.00219076
0.00862434
0.0023198
0.00244217
0.0085517
0.000967049
-0.00850347
0.00860039
0.00112101
0.00864916
0.00127439
0.00869753
0.00142676
0.00874495
0.00157765
0.00879073
0.00172655
0.00883407
0.00187286
0.00887407
0.00201595
0.0089097
0.00215514
0.00893983
0.00228967
0.00241876
0.00878912
0.000919105
-0.00874117
0.00883838
0.00107175
0.00888871
0.00122405
0.00893981
0.00137566
0.00899127
0.00152619
0.00904261
0.00167521
0.00909323
0.00182224
0.00914242
0.00196676
0.00918935
0.0021082
0.00923308
0.00224593
0.00237927
0.00903258
0.000872131
-0.00898561
0.00908148
0.00102285
0.00913217
0.00117336
0.00918446
0.00132338
0.00923808
0.00147257
0.00929271
0.00162058
0.00934792
0.00176702
0.00940321
0.00191148
0.00945794
0.00205347
0.0095114
0.00219248
0.00232794
0.00928326
0.000826525
-0.00923766
0.00933123
0.000974882
0.00938149
0.0011231
0.00943393