# Probe 0 (5.5 0.5 0)
# Probe 1 (5.5 -0.5 0)
#       Probe             0             1
#        Time
        0.005     -0.652167     -0.652307
         0.01     0.0246953       0.02489
        0.015     -0.012063    -0.0121055
         0.02    -0.0104056    -0.0104218
        0.025   -0.00918976   -0.00919711
         0.03   -0.00815611   -0.00815958
        0.035   -0.00728167   -0.00728357
         0.04   -0.00653281   -0.00653318
        0.045   -0.00588226   -0.00588184
         0.05    -0.0053117   -0.00531093
        0.055   -0.00480831   -0.00480729
         0.06   -0.00436272   -0.00436157
        0.065   -0.00396569   -0.00396432
         0.07    -0.0036114   -0.00360993
        0.075   -0.00329678    -0.0032953
         0.08   -0.00301502   -0.00301362
        0.085   -0.00275718   -0.00275583
         0.09   -0.00252172   -0.00252044
        0.095    -0.0023079   -0.00230664
          0.1   -0.00211273    -0.0021116
        0.105   -0.00193509   -0.00193402
         0.11   -0.00177248   -0.00177144
        0.115   -0.00162297   -0.00162196
         0.12   -0.00148598   -0.00148503
        0.125   -0.00135975   -0.00135889
         0.13   -0.00124286   -0.00124206
        0.135   -0.00113514   -0.00113439
         0.14   -0.00103533   -0.00103461
        0.145   -0.00094279  -0.000942112
         0.15  -0.000856998  -0.000856337
        0.155  -0.000777276  -0.000776658
         0.16   -0.00070327  -0.000702686
        0.165  -0.000634385  -0.000633843
         0.17  -0.000570262  -0.000569753
        0.175  -0.000510476   -0.00051003
         0.18   -0.00045488  -0.000454496
        0.185  -0.000402914  -0.000402556
         0.19  -0.000354399  -0.000354004
        0.195  -0.000308958  -0.000308613
          0.2  -0.000266474  -0.000266133
        0.205  -0.000226694  -0.000226375
         0.21  -0.000189386  -0.000189073
        0.215  -0.000154485  -0.000154191
         0.22  -0.000121608  -0.000121334
        0.225  -9.09789e-05  -9.07335e-05
         0.23  -6.18212e-05  -6.15839e-05
        0.235  -3.44975e-05  -3.42652e-05
         0.24  -9.31053e-06  -9.08587e-06
        0.245   1.48632e-05   1.50835e-05
         0.25   3.77105e-05   3.79257e-05
        0.255   5.94301e-05   5.96378e-05
         0.26   8.15674e-05   8.17308e-05
        0.265   9.80288e-05   9.82058e-05
         0.27   0.000116242   0.000116417
        0.275   0.000133578   0.000133719
         0.28   0.000149782     0.0001499
        0.285   0.000165329   0.000165453
         0.29    0.00017985   0.000179952
        0.295   0.000193564    0.00019369
          0.3   0.000206862    0.00020696
        0.305   0.000219691   0.000219789
         0.31   0.000231873   0.000232004
        0.315   0.000243389   0.000243506
         0.32   0.000254334   0.000254448
        0.325   0.000264943   0.000265031
         0.33   0.000275089   0.000275163
        0.335   0.000284831   0.000284903
         0.34   0.000294076   0.000294157
        0.345   0.000302934    0.00030302
         0.35     0.0003113   0.000311408
        0.355    0.00031948   0.000319564
         0.36   0.000327224   0.000327299
        0.365   0.000334797   0.000334862
         0.37   0.000342086   0.000342147
        0.375   0.000349008   0.000349046
         0.38    0.00035578   0.000355829
        0.385   0.000362217   0.000362269
         0.39   0.000368418   0.000368484
        0.395   0.000374304   0.000374381
          0.4   0.000380056   0.000380117
        0.405   0.000385814   0.000385868
         0.41    0.00039128   0.000391339
        0.415   0.000396681   0.000396734
         0.42   0.000401819   0.000401866
        0.425   0.000406877    0.00040693
         0.43   0.000411809   0.000411858
        0.435   0.000416447     0.0004165
         0.44   0.000420735   0.000420782
        0.445   0.000424596   0.000424668
         0.45   0.000429645   0.000429685
        0.455   0.000433963      0.000434
         0.46   0.000438056   0.000438073
        0.465   0.000441881    0.00044191
         0.47   0.000445325   0.000445365
        0.475   0.000449324   0.000449378
         0.48   0.000453591   0.000453605
        0.485    0.00045752   0.000457549
         0.49   0.000460946   0.000460982
        0.495   0.000464291   0.000464333
          0.5   0.000467457   0.000467492
        0.505   0.000470871   0.000470916
         0.51    0.00047388   0.000473925
        0.515   0.000476939   0.000476987
         0.52   0.000479904   0.000479926
        0.525   0.000483088   0.000483134
         0.53   0.000486492   0.000486512
        0.535    0.00048977   0.000489805
         0.54   0.000492578   0.000492622
        0.545   0.000495243   0.000495294
         0.55   0.000498077   0.000498117
        0.555   0.000501055   0.000501083
         0.56   0.000503871   0.000503896
        0.565   0.000506623   0.000506634
         0.57   0.000509231    0.00050924
        0.575   0.000511878   0.000511877
         0.58    0.00051476   0.000514788
        0.585   0.000517182   0.000517209
         0.59   0.000519372   0.000519405
        0.595   0.000521946   0.000521985
          0.6   0.000524038   0.000524073
        0.605   0.000526713   0.000526751
         0.61   0.000529013   0.000529046
        0.615   0.000531335   0.000531362
         0.62   0.000533536   0.000533553
        0.625   0.000536045   0.000536086
         0.63   0.000538455   0.000538507
        0.635   0.000540868   0.000540931
         0.64   0.000543191   0.000543226
        0.645   0.000545436   0.000545461
         0.65   0.000547696   0.000547723
        0.655   0.000550104   0.000550131
         0.66    0.00055213   0.000552154
        0.665   0.000554401   0.000554423
         0.67   0.000556616   0.000556636
        0.675   0.000558947   0.000558974
         0.68   0.000561452   0.000561476
        0.685   0.000563256   0.000563283
         0.69   0.000565231   0.000565252
        0.695   0.000567688   0.000567717
          0.7   0.000569343   0.000569367
        0.705   0.000570716   0.000570757
         0.71   0.000574811   0.000574854
        0.715   0.000577443    0.00057748
         0.72   0.000579155   0.000579174
        0.725   0.000581389   0.000581431
         0.73   0.000583663   0.000583699
        0.735   0.000585925   0.000585959
         0.74   0.000588196   0.000588225
        0.745   0.000589705   0.000589741
         0.75   0.000591924   0.000591993
        0.755    0.00059419    0.00059427
         0.76   0.000596147   0.000596229
        0.765   0.000598164   0.000598237
         0.77   0.000601432   0.000601463
        0.775   0.000604496   0.000604514
         0.78   0.000606276   0.000606296
        0.785   0.000608624   0.000608643
         0.79     0.0006117   0.000611665
        0.795   0.000614119   0.000614128
          0.8   0.000615602   0.000615603
        0.805   0.000618061   0.000618096
         0.81   0.000620829   0.000620878
        0.815   0.000622433    0.00062249
         0.82   0.000624898   0.000624965
        0.825   0.000627593   0.000627629
         0.83   0.000630299   0.000630325
        0.835   0.000631821   0.000631851
         0.84   0.000634322   0.000634357
        0.845   0.000636583   0.000636626
         0.85   0.000639073   0.000639078
        0.855   0.000641908   0.000641866
         0.86   0.000644754     0.0006448
        0.865    0.00064774    0.00064778
         0.87   0.000649665   0.000649699
        0.875   0.000652293   0.000652329
         0.88   0.000654955   0.000654987
        0.885   0.000657695   0.000657726
         0.89   0.000660304   0.000660331
        0.895    0.00066305   0.000663077
          0.9   0.000665856   0.000665865
        0.905   0.000669539   0.000669526
         0.91   0.000671788   0.000671815
        0.915   0.000674217   0.000674277
         0.92   0.000676009   0.000676075
        0.925   0.000678906   0.000678974
         0.93   0.000682402   0.000682483
        0.935   0.000683711   0.000683767
         0.94   0.000687306   0.000687297
        0.945    0.00069066   0.000690675
         0.95   0.000693631   0.000693679
        0.955   0.000696766   0.000696824
         0.96   0.000700186   0.000700246
        0.965   0.000702116   0.000702181
         0.97   0.000705142   0.000705199
        0.975   0.000708414   0.000708428
         0.98   0.000711381   0.000711412
        0.985   0.000714269   0.000714296
         0.99   0.000717408   0.000717428
        0.995   0.000720522   0.000720558
            1   0.000724247   0.000724267
        1.005   0.000726363   0.000726379
         1.01   0.000729229   0.000729232
        1.015    0.00073257   0.000732593
         1.02   0.000735758   0.000735774
        1.025   0.000738028   0.000738012
         1.03    0.00073814   0.000738224
        1.035    0.00074696   0.000747067
         1.04   0.000752127   0.000752167
        1.045   0.000755626   0.000755662
         1.05   0.000758809   0.000758845
        1.055   0.000762452   0.000762483
         1.06   0.000766449   0.000766485
        1.065   0.000769549   0.000769582
         1.07   0.000771778   0.000771815
        1.075   0.000775297   0.000775315
         1.08    0.00077894   0.000778931
        1.085   0.000782924   0.000782875
         1.09   0.000786486   0.000786476
        1.095   0.000790351   0.000790399
          1.1   0.000794924    0.00079501
        1.105   0.000797417    0.00079751
         1.11    0.00080118   0.000801282
        1.115   0.000804974   0.000805092
         1.12   0.000808772   0.000808902
        1.125   0.000812602   0.000812658
         1.13    0.00081641   0.000816446
        1.135   0.000820077   0.000820083
         1.14   0.000823604   0.000823647
        1.145   0.000828886   0.000828922
         1.15   0.000833251   0.000833288
        1.155   0.000838005   0.000838048
         1.16   0.000840439   0.000840477
        1.165   0.000844658   0.000844699
         1.17   0.000849636   0.000849644
        1.175   0.000853561   0.000853577
         1.18   0.000856764   0.000856774
        1.185   0.000863205    0.00086322
         1.19   0.000865138   0.000865168
        1.195   0.000869276   0.000869295
          1.2   0.000873665    0.00087367
        1.205   0.000878001   0.000878052
         1.21   0.000882717   0.000882751
        1.215   0.000888245   0.000888254
         1.22    0.00089043    0.00089047
        1.225   0.000894647   0.000894706
         1.23   0.000898858   0.000898894
        1.235   0.000902655   0.000902666
         1.24   0.000907724   0.000907888
        1.245   0.000913202   0.000913206
         1.25   0.000918323   0.000918339
        1.255   0.000923196   0.000923277
         1.26   0.000928851   0.000928938
        1.265   0.000931831   0.000931904
         1.27    0.00093538   0.000935439
        1.275   0.000940315   0.000940336
         1.28   0.000945496   0.000945541
        1.285   0.000950552   0.000950606
         1.29   0.000955203   0.000955257
        1.295   0.000960007   0.000960031
          1.3   0.000964831    0.00096486
        1.305    0.00096966   0.000969673
         1.31   0.000974677   0.000974707
        1.315   0.000979497   0.000979528
         1.32   0.000984352   0.000984408
        1.325   0.000989513   0.000989552
         1.33   0.000995176   0.000995227
        1.335   0.000999112   0.000999159
         1.34     0.0010038    0.00100386
        1.345    0.00100873    0.00100879
         1.35    0.00101342    0.00101348
        1.355    0.00101895      0.001019
         1.36    0.00102441    0.00102445
        1.365    0.00102949    0.00102952
         1.37    0.00103465    0.00103469
        1.375    0.00103986    0.00103991
         1.38      0.001045    0.00104503
        1.385    0.00105023    0.00105026
         1.39    0.00105495    0.00105498
        1.395    0.00106123    0.00106128
          1.4    0.00106645    0.00106646
        1.405    0.00107165    0.00107169
         1.41    0.00107693    0.00107692
        1.415    0.00108259    0.00108261
         1.42    0.00108812    0.00108818
        1.425    0.00109343    0.00109352
         1.43    0.00109917    0.00109919
        1.435     0.0011053    0.00110533
         1.44    0.00111157    0.00111166
        1.445    0.00111616    0.00111626
         1.45    0.00112008     0.0011202
        1.455    0.00112618    0.00112626
         1.46    0.00113154    0.00113163
        1.465    0.00113751    0.00113761
         1.47    0.00114445    0.00114452
        1.475    0.00114787    0.00114798
         1.48    0.00115343    0.00115354
        1.485    0.00115997    0.00116002
         1.49     0.0011661    0.00116612
        1.495    0.00117169    0.00117179
          1.5     0.0011779    0.00117791
        1.505     0.0011844    0.00118443
         1.51    0.00119105     0.0011911
        1.515    0.00119458    0.00119459
         1.52    0.00120093    0.00120095
        1.525    0.00120698    0.00120702
         1.53    0.00121287    0.00121292
        1.535     0.0012187    0.00121875
         1.54    0.00122457    0.00122462
        1.545     0.0012303    0.00123039
         1.55    0.00123662    0.00123661
        1.555    0.00124321     0.0012432
         1.56    0.00124937    0.00124945
        1.565     0.0012556    0.00125566
         1.57    0.00126239    0.00126245
        1.575    0.00126888    0.00126894
         1.58    0.00127173    0.00127179
        1.585    0.00127764    0.00127765
         1.59    0.00128316     0.0012831
        1.595    0.00128658    0.00128622
          1.6    0.00129167    0.00129213
        1.605    0.00130685    0.00130703
         1.61    0.00131365    0.00131375
        1.615    0.00132009    0.00132018
         1.62    0.00132687    0.00132696
        1.625    0.00133234    0.00133239
         1.63    0.00133816    0.00133821
        1.635    0.00134516    0.00134522
         1.64    0.00134969    0.00134976
        1.645     0.0013563    0.00135634
         1.65    0.00136278    0.00136278
        1.655    0.00136929    0.00136938
         1.66    0.00137587    0.00137591
        1.665    0.00138278    0.00138277
         1.67    0.00139025    0.00139033
        1.675    0.00139475     0.0013948
         1.68     0.0013986    0.00139867
        1.685     0.0014063    0.00140637
         1.69    0.00141422     0.0014142
        1.695    0.00142234    0.00142242
          1.7    0.00143037    0.00143041
        1.705    0.00143472    0.00143475
         1.71    0.00144063    0.00144074
        1.715    0.00144748    0.00144755
         1.72    0.00145453    0.00145451
        1.725    0.00146117    0.00146117
         1.73    0.00146665    0.00146674
        1.735     0.0014748    0.00147492
         1.74    0.00148181    0.00148185
        1.745    0.00148881    0.00148884
         1.75    0.00149568    0.00149578
        1.755    0.00150268    0.00150277
         1.76    0.00150985    0.00150994
        1.765    0.00151822    0.00151831
         1.77    0.00152267    0.00152276
        1.775    0.00152945    0.00152955
         1.78    0.00153626    0.00153634
        1.785    0.00154347    0.00154354
         1.79    0.00155087    0.00155095
        1.795    0.00155802    0.00155808
          1.8    0.00156646    0.00156654
        1.805     0.0015727    0.00157275
         1.81     0.0015785    0.00157854
        1.815      0.001586    0.00158609
         1.82    0.00159358    0.00159366
        1.825    0.00160058    0.00160068
         1.83    0.00160681    0.00160696
        1.835    0.00161415    0.00161416
         1.84    0.00161926    0.00161926
        1.845    0.00162638    0.00162644
         1.85    0.00163394      0.001634
        1.855    0.00164178    0.00164186
         1.86    0.00164964    0.00164967
        1.865    0.00165597    0.00165596
         1.87    0.00166348    0.00166358
        1.875    0.00167075    0.00167085
         1.88    0.00167804    0.00167813
        1.885    0.00168539    0.00168548
         1.89    0.00169284    0.00169292
        1.895    0.00170031     0.0017004
          1.9    0.00170806     0.0017082
        1.905    0.00171674    0.00171676
         1.91    0.00172198    0.00172201
        1.915    0.00172931     0.0017294
         1.92    0.00173687    0.00173697
        1.925    0.00174426    0.00174438
         1.93    0.00175187    0.00175195
        1.935    0.00175981    0.00175986
         1.94    0.00176854    0.00176859
        1.945    0.00177432    0.00177439
         1.95    0.00178048    0.00178057
        1.955    0.00178971    0.00178984
         1.96    0.00179657    0.00179662
        1.965    0.00180261    0.00180264
         1.97    0.00181021    0.00181036
        1.975    0.00181855    0.00181864
         1.98     0.0018266    0.00182665
        1.985    0.00183188    0.00183188
         1.99    0.00184009    0.00184006
        1.995    0.00184787    0.00184797
            2    0.00185586    0.00185596
        2.005    0.00186324    0.00186334
         2.01    0.00187048    0.00187062
        2.015    0.00187819    0.00187821
         2.02    0.00188593    0.00188594
        2.025    0.00189341    0.00189348
         2.03    0.00190023    0.00190031
        2.035    0.00190735    0.00190748
         2.04    0.00191441    0.00191436
        2.045    0.00192119    0.00192109
         2.05    0.00192773    0.00192749
        2.055    0.00192652    0.00192699
         2.06    0.00194532    0.00194666
        2.065    0.00195941    0.00195939
         2.07    0.00196773    0.00196773
        2.075    0.00197584    0.00197589
         2.08    0.00198423    0.00198423
        2.085    0.00199232    0.00199236
         2.09    0.00200103    0.00200106
        2.095    0.00200623     0.0020063
          2.1    0.00201368    0.00201373
        2.105    0.00202104    0.00202109
         2.11    0.00202676    0.00202679
        2.115    0.00203407    0.00203416
         2.12    0.00204229    0.00204239
        2.125    0.00205073    0.00205087
         2.13    0.00206035    0.00206042
        2.135    0.00206545    0.00206548
         2.14    0.00207378    0.00207384
        2.145    0.00208185    0.00208193
         2.15    0.00209013    0.00209017
        2.155    0.00209968    0.00209965
         2.16    0.00210611    0.00210623
        2.165    0.00211412    0.00211425
         2.17    0.00212197    0.00212211
        2.175    0.00213019    0.00213033
         2.18    0.00213807    0.00213822
        2.185    0.00214669    0.00214673
         2.19    0.00215495      0.002155
        2.195     0.0021628    0.00216291
          2.2    0.00217032    0.00217036
        2.205    0.00217982    0.00218009
         2.21    0.00218888    0.00218895
        2.215    0.00219621    0.00219626
         2.22    0.00220459    0.00220469
        2.225    0.00221321     0.0022133
         2.23    0.00222108    0.00222122
        2.235    0.00222908    0.00222927
         2.24    0.00223647    0.00223659
        2.245    0.00224632    0.00224625
         2.25    0.00225379     0.0022538
        2.255    0.00226133    0.00226141
         2.26    0.00226821    0.00226825
        2.265    0.00227507    0.00227518
         2.27    0.00228358    0.00228369
        2.275    0.00229213    0.00229225
         2.28    0.00230071    0.00230084
        2.285    0.00230957    0.00230962
         2.29    0.00232026    0.00232034
        2.295    0.00232527    0.00232524
          2.3     0.0023335    0.00233351
        2.305    0.00234196    0.00234205
         2.31    0.00235046    0.00235055
        2.315    0.00235923    0.00235933
         2.32    0.00236738    0.00236749
        2.325    0.00237552    0.00237564
         2.33    0.00238391    0.00238403
        2.335    0.00239233    0.00239245
         2.34    0.00240076    0.00240088
        2.345    0.00240922    0.00240936
         2.35    0.00241764     0.0024178
        2.355    0.00242599    0.00242606
         2.36    0.00243459    0.00243477
        2.365    0.00244307    0.00244302
         2.37    0.00245215    0.00245214
        2.375      0.002462    0.00246219
         2.38    0.00246686    0.00246688
        2.385     0.0024748    0.00247473
         2.39    0.00248298    0.00248313
        2.395    0.00249167    0.00249181
          2.4    0.00250028    0.00250043
        2.405    0.00250894     0.0025091
         2.41    0.00251759    0.00251786
        2.415    0.00252674    0.00252664
         2.42    0.00253239    0.00253196
        2.425    0.00253811    0.00253783
         2.43    0.00254275    0.00254258
        2.435    0.00254582    0.00254486
         2.44    0.00255108    0.00255224
        2.445    0.00257532    0.00257663
         2.45    0.00258801     0.0025883
        2.455     0.0025976    0.00259786
         2.46     0.0026076    0.00260764
        2.465    0.00261683     0.0026168
         2.47    0.00262278    0.00262295
        2.475    0.00263151    0.00263168
         2.48    0.00264041    0.00264057
        2.485    0.00264935    0.00264953
         2.49    0.00265941    0.00265965
        2.495    0.00266695    0.00266695
          2.5    0.00267579    0.00267582
        2.505    0.00268458    0.00268476
         2.51    0.00269339    0.00269363
        2.515    0.00270252    0.00270259
         2.52    0.00271171    0.00271171
        2.525     0.0027209    0.00272096
         2.53    0.00273013    0.00273029
        2.535    0.00273869     0.0027387
         2.54    0.00274708    0.00274719
        2.545    0.00275514    0.00275529
         2.55    0.00276563    0.00276578
        2.555    0.00277285    0.00277302
         2.56    0.00278128    0.00278148
        2.565    0.00279022    0.00279054
         2.57    0.00279968    0.00279964
        2.575    0.00280908    0.00280907
         2.58    0.00281831    0.00281847
        2.585    0.00282775    0.00282797
         2.59    0.00283799    0.00283802
        2.595    0.00284621    0.00284638
          2.6    0.00285152    0.00285151
        2.605    0.00286015    0.00286024
         2.61    0.00286969    0.00286979
        2.615    0.00287908    0.00287926
         2.62    0.00288848    0.00288884
        2.625    0.00289774    0.00289758
         2.63    0.00290628    0.00290617
        2.635    0.00291547    0.00291559
         2.64    0.00292516     0.0029253
        2.645    0.00293607    0.00293622
         2.65    0.00294306    0.00294322
        2.655    0.00295131    0.00295148
         2.66    0.00296078    0.00296096
        2.665    0.00297017     0.0029704
         2.67    0.00297974    0.00297978
        2.675    0.00299028     0.0029904
         2.68    0.00299851    0.00299864
        2.685    0.00300793    0.00300814
         2.69    0.00301745    0.00301769
        2.695    0.00302751    0.00302753
          2.7    0.00303748     0.0030375
        2.705    0.00304579    0.00304596
         2.71     0.0030545    0.00305473
        2.715    0.00306314    0.00306339
         2.72    0.00307262     0.0030729
        2.725    0.00308232    0.00308259
         2.73    0.00309221    0.00309236
        2.735    0.00310301    0.00310317
         2.74    0.00311528    0.00311564
        2.745    0.00312355    0.00312407
         2.75    0.00313646     0.0031374
        2.755    0.00315598    0.00315779
         2.76    0.00315971    0.00315834
        2.765    0.00315474    0.00315425
         2.77     0.0031632    0.00316279
        2.775    0.00317296     0.0031725
         2.78    0.00318383    0.00318384
        2.785    0.00319129    0.00319145
         2.79    0.00319647    0.00319671
        2.795    0.00320611    0.00320614
          2.8     0.0032157    0.00321589
        2.805     0.0032254    0.00322531
         2.81    0.00323474     0.0032346
        2.815    0.00324494    0.00324516
         2.82    0.00325532    0.00325556
        2.825    0.00326482    0.00326519
         2.83     0.0032746    0.00327461
        2.835    0.00328473    0.00328484
         2.84    0.00329561    0.00329562
        2.845    0.00330387    0.00330374
         2.85    0.00330938    0.00330932
        2.855    0.00331881    0.00331897
         2.86    0.00332829    0.00332847
        2.865    0.00333855    0.00333872
         2.87     0.0033489    0.00334909
        2.875    0.00336008    0.00336032
         2.88    0.00336885    0.00336909
        2.885    0.00337737    0.00337734
         2.89    0.00338588    0.00338585
        2.895    0.00339534    0.00339549
          2.9    0.00340525    0.00340544
        2.905    0.00341492    0.00341513
         2.91     0.0034246    0.00342487
        2.915    0.00343462    0.00343511
         2.92    0.00344454    0.00344432
        2.925    0.00345414    0.00345379
         2.93    0.00346334    0.00346351
        2.935    0.00347361    0.00347379
         2.94    0.00348432    0.00348452
        2.945    0.00349611    0.00349635
         2.95    0.00350308    0.00350341
        2.955    0.00351327    0.00351318
         2.96    0.00352323    0.00352318
        2.965    0.00353338    0.00353354
         2.97    0.00354373     0.0035439
        2.975    0.00355503    0.00355521
         2.98    0.00356412    0.00356432
        2.985    0.00357331    0.00357355
         2.99    0.00358049    0.00358074
        2.995    0.00358826    0.00358856
            3    0.00359874    0.00359914
        3.005    0.00360923    0.00360988
         3.01    0.00362132     0.0036216
        3.015    0.00363434    0.00363517
         3.02    0.00365171    0.00365116
        3.025    0.00365384    0.00365012
         3.03    0.00365115    0.00365118
        3.035    0.00366085    0.00366146
         3.04    0.00367125    0.00367152
        3.045    0.00368158    0.00368194
         3.05    0.00369295    0.00369335
        3.055    0.00370161    0.00370154
         3.06    0.00371118    0.00371118
        3.065    0.00372175    0.00372201
         3.07    0.00373247    0.00373275
        3.075    0.00374112    0.00374142
         3.08     0.0037503    0.00375067
        3.085    0.00376117    0.00376118
         3.09       0.00377    0.00376988
        3.095    0.00377983     0.0037801
          3.1    0.00378995    0.00379026
        3.105    0.00380059     0.0038011
         3.11    0.00381133     0.0038112
        3.115     0.0038219    0.00382181
         3.12    0.00383198    0.00383235
        3.125    0.00384279     0.0038427
         3.13    0.00385318    0.00385327
        3.135    0.00386336    0.00386367
         3.14    0.00387337    0.00387387
        3.145    0.00388374    0.00388356
         3.15    0.00389398    0.00389362
        3.155    0.00390382    0.00390408
         3.16    0.00391607    0.00391635
        3.165    0.00392391    0.00392424
         3.17    0.00393479    0.00393529
        3.175    0.00394615    0.00394594
         3.18    0.00395617    0.00395541
        3.185    0.00396568     0.0039661
         3.19    0.00397625    0.00397696
        3.195    0.00398455    0.00398448
          3.2    0.00399433    0.00399452
        3.205    0.00400508    0.00400532
         3.21    0.00401293     0.0040132
        3.215    0.00402385    0.00402418
         3.22    0.00403532    0.00403574
        3.225    0.00404696    0.00404751
         3.23    0.00405888    0.00405913
        3.235    0.00407231    0.00407361
         3.24    0.00408526    0.00408378
        3.245    0.00408535    0.00408331
         3.25    0.00409188    0.00409203
        3.255    0.00410238    0.00410261
         3.26    0.00411328    0.00411351
        3.265    0.00412478    0.00412505
         3.27    0.00413576    0.00413601
        3.275     0.0041486    0.00414895
         3.28    0.00415313    0.00415342
        3.285    0.00416253     0.0041629
         3.29    0.00417263    0.00417323
        3.295    0.00418379    0.00418392
          3.3    0.00419603     0.0041949
        3.305     0.0042051    0.00420445
         3.31    0.00421426    0.00421464
        3.315    0.00422486    0.00422522
         3.32    0.00423524    0.00423559
        3.325    0.00424528    0.00424558
         3.33    0.00425737     0.0042576
        3.335    0.00426881     0.0042691
         3.34    0.00427994    0.00428029
        3.345    0.00429035     0.0042911
         3.35    0.00430152    0.00430111
        3.355    0.00431217    0.00431194
         3.36    0.00432251    0.00432268
        3.365    0.00433327     0.0043335
         3.37    0.00434385    0.00434408
        3.375    0.00435526    0.00435555
         3.38    0.00436589    0.00436623
        3.385    0.00437689    0.00437748
         3.39    0.00438946    0.00438934
        3.395    0.00440052    0.00440026
          3.4    0.00441037    0.00441159
        3.405    0.00442255    0.00442228
         3.41    0.00443399    0.00443425
        3.415    0.00444855    0.00445035
         3.42    0.00445756    0.00445486
        3.425     0.0044565    0.00445449
         3.43    0.00446571    0.00446598
        3.435    0.00447934    0.00447985
         3.44    0.00448697    0.00448748
        3.445    0.00449832    0.00449789
         3.45    0.00450915    0.00450958
        3.455    0.00452046    0.00452052
         3.46    0.00453155    0.00453141
        3.465    0.00454259    0.00454282
         3.47     0.0045537      0.004554
        3.475    0.00456488    0.00456522
         3.48    0.00457676    0.00457723
        3.485    0.00458929    0.00458923
         3.49    0.00459996    0.00459982
        3.495    0.00461025    0.00461017
          3.5    0.00461968    0.00461977
        3.505    0.00462992    0.00463007
         3.51    0.00464246    0.00464257
        3.515    0.00465632    0.00465654
         3.52    0.00466251     0.0046627
        3.525    0.00467356    0.00467376
         3.53    0.00468461    0.00468482
        3.535    0.00469591    0.00469618
         3.54    0.00470738    0.00470767
        3.545     0.0047188    0.00471922
         3.55    0.00473104    0.00473207
        3.555     0.0047444    0.00474403