# Probe 0 (5.5 0.5 0)
# Probe 1 (5.5 -0.5 0)
#       Probe             0             1
#        Time
        0.005             (0.993842 -0.00106477 -7.19677e-21)             (0.993841 0.0010635 -1.31719e-20)
         0.01             (0.994084 -0.000874996 2.62195e-22)             (0.994084 0.000875457 4.97041e-22)
        0.015             (0.993963 -0.00086057 -1.34947e-22)             (0.993963 0.000860661 -2.47027e-22)
         0.02             (0.993856 -0.000850026 -1.16357e-22)             (0.993856 0.00084998 -2.12545e-22)
        0.025             (0.993762 -0.00084293 -1.0271e-22)             (0.993762 0.000842819 -1.87435e-22)
         0.03             (0.993678 -0.000838202 -9.11493e-23)             (0.993678 0.00083806 -1.6619e-22)
        0.035             (0.993603 -0.000835287 -8.13718e-23)             (0.993603 0.000835126 -1.48277e-22)
         0.04             (0.993535 -0.000833787 -7.30003e-23)             (0.993535 0.00083362 -1.32949e-22)
        0.045             (0.993473 -0.000833392 -6.57308e-23)             (0.993473 0.000833227 -1.19658e-22)
         0.05             (0.993416 -0.000833873 -5.93576e-23)             (0.993416 0.000833713 -1.08017e-22)
        0.055             (0.993365 -0.000835058 -5.37369e-23)             (0.993364 0.000834905 -9.77541e-23)
         0.06             (0.993317 -0.000836824 -4.87633e-23)             (0.993317 0.000836679 -8.86756e-23)
        0.065             (0.993273 -0.000839065 -4.43345e-23)             (0.993273 0.000838931 -8.05867e-23)
         0.07             (0.993233 -0.00084171 -4.03812e-23)             (0.993232 0.000841588 -7.33744e-23)
        0.075             (0.993195 -0.000844733 -3.68596e-23)             (0.993195 0.000844622 -6.69804e-23)
         0.08             (0.99316 -0.000848105 -3.36998e-23)             (0.993159 0.000848006 -6.1261e-23)
        0.085             (0.993127 -0.000851754 -3.08203e-23)             (0.993127 0.000851666 -5.60195e-23)
         0.09             (0.993096 -0.000855623 -2.81934e-23)             (0.993096 0.000855546 -5.12346e-23)
        0.095             (0.993067 -0.000859684 -2.5808e-23)             (0.993067 0.000859618 -4.68893e-23)
          0.1             (0.99304 -0.000863911 -2.36309e-23)             (0.99304 0.000863855 -4.29262e-23)
        0.105             (0.993015 -0.000868293 -2.16489e-23)             (0.993015 0.000868247 -3.93181e-23)
         0.11             (0.992991 -0.000872813 -1.98346e-23)             (0.992991 0.000872776 -3.60152e-23)
        0.115             (0.992968 -0.00087745 -1.81669e-23)             (0.992968 0.000877422 -3.29789e-23)
         0.12             (0.992947 -0.000882196 -1.66386e-23)             (0.992947 0.000882177 -3.0198e-23)
        0.125             (0.992927 -0.000887038 -1.52304e-23)             (0.992927 0.000887027 -2.76364e-23)
         0.13             (0.992907 -0.000891964 -1.39266e-23)             (0.992907 0.000891961 -2.52641e-23)
        0.135             (0.992889 -0.000896969 -1.27249e-23)             (0.992889 0.000896973 -2.3078e-23)
         0.14             (0.992871 -0.000902042 -1.16116e-23)             (0.992872 0.000902054 -2.10522e-23)
        0.145             (0.992855 -0.000907179 -1.05795e-23)             (0.992855 0.000907197 -1.91745e-23)
         0.15             (0.992839 -0.000912372 -9.62264e-24)             (0.992839 0.000912397 -1.74332e-23)
        0.155             (0.992824 -0.000917618 -8.73346e-24)             (0.992824 0.000917649 -1.58158e-23)
         0.16             (0.992809 -0.000922912 -7.90801e-24)             (0.992809 0.000922949 -1.43143e-23)
        0.165             (0.992795 -0.000928249 -7.13968e-24)             (0.992795 0.000928292 -1.2917e-23)
         0.17             (0.992782 -0.000933627 -6.42447e-24)             (0.992782 0.000933676 -1.16162e-23)
        0.175             (0.992769 -0.000939043 -5.75762e-24)             (0.992769 0.000939097 -1.0404e-23)
         0.18             (0.992756 -0.000944494 -5.13748e-24)             (0.992756 0.000944552 -9.27683e-24)
        0.185             (0.992744 -0.000949976 -4.55783e-24)             (0.992744 0.000950039 -8.22264e-24)
         0.19             (0.992732 -0.000955488 -4.01669e-24)             (0.992732 0.000955555 -7.23722e-24)
        0.195             (0.992721 -0.000961028 -3.5098e-24)             (0.992721 0.000961099 -6.31598e-24)
          0.2             (0.99271 -0.000966593 -3.0359e-24)             (0.99271 0.000966669 -5.45381e-24)
        0.205             (0.992699 -0.000972183 -2.59214e-24)             (0.992699 0.000972262 -4.6469e-24)
         0.21             (0.992689 -0.000977794 -2.17597e-24)             (0.992689 0.000977878 -3.88984e-24)
        0.215             (0.992679 -0.000983426 -1.78662e-24)             (0.992679 0.000983514 -3.1819e-24)
         0.22             (0.992669 -0.000989077 -1.41991e-24)             (0.992669 0.000989168 -2.51508e-24)
        0.225             (0.992659 -0.000994748 -1.07811e-24)             (0.992659 0.000994842 -1.89397e-24)
         0.23             (0.992649 -0.00100043 -7.5289e-25)             (0.99265 0.00100053 -1.3024e-24)
        0.235             (0.99264 -0.00100613 -4.48351e-25)             (0.99264 0.00100623 -7.48021e-25)
         0.24             (0.992631 -0.00101186 -1.66462e-25)             (0.992631 0.00101196 -2.369e-25)
        0.245             (0.992622 -0.00101759 1.03419e-25)             (0.992622 0.0010177 2.53594e-25)
         0.25             (0.992613 -0.00102335 3.58655e-25)             (0.992613 0.00102346 7.17101e-25)
        0.255             (0.992605 -0.00102912 6.02014e-25)             (0.992605 0.00102924 1.1575e-24)
         0.26             (0.992596 -0.00103495 8.54724e-25)             (0.992596 0.00103506 1.60438e-24)
        0.265             (0.992588 -0.00104072 1.02927e-24)             (0.992588 0.00104084 1.94099e-24)
         0.27             (0.992579 -0.0010465 1.23234e-24)             (0.99258 0.00104662 2.3106e-24)
        0.275             (0.992571 -0.00105229 1.42584e-24)             (0.992571 0.00105241 2.66172e-24)
         0.28             (0.992563 -0.00105809 1.6068e-24)             (0.992563 0.00105822 2.99009e-24)
        0.285             (0.992555 -0.0010639 1.78038e-24)             (0.992555 0.00106403 3.30571e-24)
         0.29             (0.992547 -0.00106972 1.94252e-24)             (0.992547 0.00106985 3.59992e-24)
        0.295             (0.992539 -0.00107555 2.09574e-24)             (0.992539 0.00107568 3.87873e-24)
          0.3             (0.992532 -0.00108139 2.24423e-24)             (0.992532 0.00108152 4.14797e-24)
        0.305             (0.992524 -0.00108723 2.38737e-24)             (0.992524 0.00108737 4.40821e-24)
         0.31             (0.992516 -0.00109308 2.52328e-24)             (0.992516 0.00109322 4.65599e-24)
        0.315             (0.992508 -0.00109893 2.65185e-24)             (0.992509 0.00109908 4.88933e-24)
         0.32             (0.992501 -0.0011048 2.77408e-24)             (0.992501 0.00110494 5.11132e-24)
        0.325             (0.992493 -0.00111066 2.89245e-24)             (0.992493 0.00111081 5.32592e-24)
         0.33             (0.992486 -0.00111653 3.00566e-24)             (0.992486 0.00111669 5.5314e-24)
        0.335             (0.992478 -0.00112241 3.1144e-24)             (0.992479 0.00112256 5.72892e-24)
         0.34             (0.992471 -0.00112829 3.21759e-24)             (0.992471 0.00112845 5.9166e-24)
        0.345             (0.992464 -0.00113418 3.31647e-24)             (0.992464 0.00113433 6.09632e-24)
         0.35             (0.992456 -0.00114007 3.40987e-24)             (0.992456 0.00114023 6.2664e-24)
        0.355             (0.992449 -0.00114596 3.50118e-24)             (0.992449 0.00114612 6.43176e-24)
         0.36             (0.992441 -0.00115186 3.58762e-24)             (0.992442 0.00115202 6.58855e-24)
        0.365             (0.992434 -0.00115776 3.67215e-24)             (0.992434 0.00115793 6.74185e-24)
         0.37             (0.992427 -0.00116367 3.7535e-24)             (0.992427 0.00116384 6.88949e-24)
        0.375             (0.992419 -0.00116958 3.83078e-24)             (0.99242 0.00116975 7.02929e-24)
         0.38             (0.992412 -0.00117549 3.90635e-24)             (0.992412 0.00117566 7.16673e-24)
        0.385             (0.992405 -0.00118141 3.97821e-24)             (0.992405 0.00118158 7.29721e-24)
         0.39             (0.992397 -0.00118733 4.04743e-24)             (0.992398 0.00118751 7.42313e-24)
        0.395             (0.99239 -0.00119325 4.11316e-24)             (0.99239 0.00119343 7.5426e-24)
          0.4             (0.992383 -0.00119918 4.17737e-24)             (0.992383 0.00119936 7.65876e-24)
        0.405             (0.992376 -0.00120511 4.24159e-24)             (0.992376 0.00120529 7.7752e-24)
         0.41             (0.992368 -0.00121105 4.30256e-24)             (0.992368 0.00121123 7.88597e-24)
        0.415             (0.992361 -0.00121698 4.3628e-24)             (0.992361 0.00121717 7.99518e-24)
         0.42             (0.992354 -0.00122292 4.42013e-24)             (0.992354 0.00122311 8.09905e-24)
        0.425             (0.992346 -0.00122886 4.47656e-24)             (0.992346 0.00122905 8.20155e-24)
         0.43             (0.992339 -0.00123481 4.53159e-24)             (0.992339 0.001235 8.30128e-24)
        0.435             (0.992331 -0.00124076 4.58335e-24)             (0.992332 0.00124095 8.39525e-24)
         0.44             (0.992324 -0.00124671 4.63118e-24)             (0.992324 0.00124691 8.48205e-24)
        0.445             (0.992317 -0.00125268 4.67384e-24)             (0.992317 0.00125287 8.56146e-24)
         0.45             (0.992309 -0.00125864 4.73069e-24)             (0.992309 0.00125883 8.66172e-24)
        0.455             (0.992302 -0.0012646 4.77887e-24)             (0.992302 0.0012648 8.74887e-24)
         0.46             (0.992294 -0.00127056 4.82464e-24)             (0.992294 0.00127076 8.83118e-24)
        0.465             (0.992287 -0.00127654 4.86758e-24)             (0.992287 0.00127674 8.90869e-24)
         0.47             (0.992279 -0.00128252 4.90707e-24)             (0.99228 0.00128273 8.97822e-24)
        0.475             (0.992272 -0.0012885 4.95087e-24)             (0.992272 0.00128871 9.05969e-24)
         0.48             (0.992264 -0.00129448 4.99694e-24)             (0.992264 0.00129469 9.14538e-24)
        0.485             (0.992257 -0.00130046 5.04067e-24)             (0.992257 0.00130067 9.22504e-24)
         0.49             (0.992249 -0.00130644 5.07896e-24)             (0.992249 0.00130665 9.29437e-24)
        0.495             (0.992242 -0.00131243 5.11634e-24)             (0.992242 0.00131264 9.36201e-24)
          0.5             (0.992234 -0.00131842 5.15174e-24)             (0.992234 0.00131863 9.42577e-24)
        0.505             (0.992226 -0.00132442 5.18987e-24)             (0.992227 0.00132463 9.49488e-24)
         0.51             (0.992219 -0.00133042 5.22357e-24)             (0.992219 0.00133064 9.55563e-24)
        0.515             (0.992211 -0.00133643 5.25791e-24)             (0.992211 0.00133665 9.61745e-24)
         0.52             (0.992203 -0.00134245 5.2912e-24)             (0.992203 0.00134267 9.67678e-24)
        0.525             (0.992196 -0.00134847 5.32638e-24)             (0.992196 0.00134869 9.74131e-24)
         0.53             (0.992188 -0.00135449 5.36416e-24)             (0.992188 0.00135471 9.80933e-24)
        0.535             (0.99218 -0.00136051 5.40053e-24)             (0.99218 0.00136074 9.87563e-24)
         0.54             (0.992172 -0.00136654 5.43189e-24)             (0.992172 0.00136677 9.93241e-24)
        0.545             (0.992164 -0.00137257 5.46172e-24)             (0.992164 0.0013728 9.98625e-24)
         0.55             (0.992156 -0.00137861 5.49338e-24)             (0.992156 0.00137885 1.00431e-23)
        0.555             (0.992148 -0.00138466 5.52652e-24)             (0.992149 0.00138489 1.01028e-23)
         0.56             (0.99214 -0.00139071 5.55793e-24)             (0.992141 0.00139095 1.01595e-23)
        0.565             (0.992132 -0.00139677 5.58868e-24)             (0.992133 0.001397 1.02146e-23)
         0.57             (0.992124 -0.00140283 5.61781e-24)             (0.992125 0.00140307 1.02671e-23)
        0.575             (0.992116 -0.0014089 5.64737e-24)             (0.992117 0.00140914 1.03202e-23)
         0.58             (0.992108 -0.00141498 5.67951e-24)             (0.992109 0.00141522 1.03788e-23)
        0.585             (0.9921 -0.00142106 5.70658e-24)             (0.9921 0.00142131 1.04275e-23)
         0.59             (0.992092 -0.00142716 5.73109e-24)             (0.992092 0.0014274 1.04717e-23)
        0.595             (0.992084 -0.00143326 5.75984e-24)             (0.992084 0.0014335 1.05236e-23)
          0.6             (0.992076 -0.00143937 5.78327e-24)             (0.992076 0.00143961 1.05656e-23)
        0.605             (0.992067 -0.00144548 5.81313e-24)             (0.992068 0.00144573 1.06194e-23)
         0.61             (0.992059 -0.00145161 5.83884e-24)             (0.992059 0.00145186 1.06656e-23)
        0.615             (0.992051 -0.00145774 5.86482e-24)             (0.992051 0.00145799 1.07121e-23)
         0.62             (0.992043 -0.00146388 5.88948e-24)             (0.992043 0.00146413 1.07562e-23)
        0.625             (0.992034 -0.00147003 5.91747e-24)             (0.992034 0.00147029 1.08071e-23)
         0.63             (0.992026 -0.00147619 5.94432e-24)             (0.992026 0.00147645 1.08557e-23)
        0.635             (0.992017 -0.00148235 5.97124e-24)             (0.992017 0.00148261 1.09044e-23)
         0.64             (0.992009 -0.00148853 5.9972e-24)             (0.992009 0.00148879 1.09505e-23)
        0.645             (0.992 -0.00149471 6.02232e-24)             (0.992 0.00149498 1.09954e-23)
         0.65             (0.991992 -0.00150091 6.04761e-24)             (0.991992 0.00150117 1.10408e-23)
        0.655             (0.991983 -0.00150711 6.07454e-24)             (0.991983 0.00150738 1.10892e-23)
         0.66             (0.991975 -0.00151333 6.09727e-24)             (0.991975 0.00151359 1.11297e-23)
        0.665             (0.991966 -0.00151955 6.12272e-24)             (0.991966 0.00151982 1.11753e-23)
         0.67             (0.991957 -0.00152579 6.14757e-24)             (0.991957 0.00152606 1.12197e-23)
        0.675             (0.991948 -0.00153203 6.17374e-24)             (0.991949 0.00153231 1.12666e-23)
         0.68             (0.99194 -0.00153829 6.20192e-24)             (0.99194 0.00153857 1.13168e-23)
        0.685             (0.991931 -0.00154456 6.22256e-24)             (0.991931 0.00154484 1.13529e-23)
         0.69             (0.991922 -0.00155085 6.24488e-24)             (0.991922 0.00155112 1.1392e-23)
        0.695             (0.991913 -0.00155714 6.27284e-24)             (0.991913 0.00155742 1.14409e-23)
          0.7             (0.991904 -0.00156345 6.29358e-24)             (0.991904 0.00156373 1.14725e-23)
        0.705             (0.991895 -0.00156978 6.31315e-24)             (0.991895 0.00157006 1.14978e-23)
         0.71             (0.991886 -0.0015761 6.35004e-24)             (0.991886 0.00157638 1.15859e-23)
        0.715             (0.991877 -0.00158242 6.37876e-24)             (0.991877 0.00158271 1.1639e-23)
         0.72             (0.991868 -0.00158876 6.39783e-24)             (0.991868 0.00158905 1.1673e-23)
        0.725             (0.991859 -0.00159511 6.42273e-24)             (0.991859 0.0015954 1.17184e-23)
         0.73             (0.99185 -0.00160148 6.44812e-24)             (0.99185 0.00160177 1.17639e-23)
        0.735             (0.991841 -0.00160785 6.47341e-24)             (0.991841 0.00160815 1.18093e-23)
         0.74             (0.991831 -0.00161424 6.4988e-24)             (0.991832 0.00161454 1.18548e-23)
        0.745             (0.991822 -0.00162065 6.51582e-24)             (0.991822 0.00162094 1.18851e-23)
         0.75             (0.991813 -0.00162707 6.54063e-24)             (0.991813 0.00162736 1.19303e-23)
        0.755             (0.991804 -0.0016335 6.56601e-24)             (0.991804 0.0016338 1.19761e-23)
         0.76             (0.991794 -0.00163995 6.58818e-24)             (0.991794 0.00164025 1.20154e-23)
        0.765             (0.991785 -0.00164642 6.61111e-24)             (0.991785 0.00164672 1.20558e-23)
         0.77             (0.991775 -0.00165289 6.6463e-24)             (0.991776 0.00165319 1.21203e-23)
        0.775             (0.991766 -0.00165936 6.68008e-24)             (0.991766 0.00165967 1.21815e-23)
         0.78             (0.991756 -0.00166585 6.70005e-24)             (0.991757 0.00166616 1.22172e-23)
        0.785             (0.991747 -0.00167236 6.72634e-24)             (0.991747 0.00167267 1.22643e-23)
         0.79             (0.991737 -0.00167888 6.76049e-24)             (0.991737 0.00167919 1.23249e-23)
        0.795             (0.991728 -0.00168541 6.78736e-24)             (0.991728 0.00168572 1.23743e-23)
          0.8             (0.991718 -0.00169195 6.80404e-24)             (0.991718 0.00169227 1.24038e-23)
        0.805             (0.991708 -0.00169851 6.83148e-24)             (0.991708 0.00169883 1.24538e-23)
         0.81             (0.991699 -0.00170509 6.86231e-24)             (0.991699 0.00170541 1.25097e-23)
        0.815             (0.991689 -0.00171168 6.88033e-24)             (0.991689 0.001712 1.2542e-23)
         0.82             (0.991679 -0.00171828 6.90782e-24)             (0.991679 0.00171861 1.25916e-23)
        0.825             (0.991669 -0.00172491 6.93786e-24)             (0.991669 0.00172523 1.26451e-23)
         0.83             (0.991659 -0.00173154 6.96802e-24)             (0.991659 0.00173187 1.26993e-23)
        0.835             (0.991649 -0.0017382 6.98512e-24)             (0.99165 0.00173852 1.27298e-23)
         0.84             (0.991639 -0.00174486 7.01301e-24)             (0.99164 0.0017452 1.27801e-23)
        0.845             (0.991629 -0.00175155 7.03825e-24)             (0.99163 0.00175188 1.28257e-23)
         0.85             (0.991619 -0.00175825 7.06606e-24)             (0.99162 0.00175859 1.28749e-23)
        0.855             (0.991609 -0.00176497 7.09755e-24)             (0.991609 0.0017653 1.29307e-23)
         0.86             (0.991599 -0.0017717 7.12912e-24)             (0.991599 0.00177204 1.29896e-23)
        0.865             (0.991589 -0.00177844 7.16235e-24)             (0.991589 0.00177878 1.30495e-23)
         0.87             (0.991579 -0.0017852 7.18389e-24)             (0.991579 0.00178555 1.30879e-23)
        0.875             (0.991569 -0.00179198 7.21317e-24)             (0.991569 0.00179232 1.31407e-23)
         0.88             (0.991558 -0.00179878 7.24282e-24)             (0.991559 0.00179912 1.31941e-23)
        0.885             (0.991548 -0.00180559 7.27334e-24)             (0.991548 0.00180593 1.32491e-23)
         0.89             (0.991538 -0.00181241 7.30241e-24)             (0.991538 0.00181276 1.33013e-23)
        0.895             (0.991527 -0.00181926 7.33299e-24)             (0.991528 0.00181961 1.33565e-23)
          0.9             (0.991517 -0.00182612 7.36423e-24)             (0.991517 0.00182647 1.34125e-23)
        0.905             (0.991507 -0.00183299 7.40514e-24)             (0.991507 0.00183334 1.34861e-23)
         0.91             (0.991496 -0.00183988 7.43024e-24)             (0.991496 0.00184024 1.3532e-23)
        0.915             (0.991486 -0.00184679 7.45733e-24)             (0.991486 0.00184715 1.35814e-23)
         0.92             (0.991475 -0.00185372 7.47741e-24)             (0.991475 0.00185408 1.36174e-23)
        0.925             (0.991464 -0.00186067 7.5097e-24)             (0.991465 0.00186103 1.36757e-23)
         0.93             (0.991454 -0.00186764 7.54867e-24)             (0.991454 0.001868 1.37463e-23)
        0.935             (0.991443 -0.00187463 7.5637e-24)             (0.991443 0.00187499 1.37721e-23)
         0.94             (0.991432 -0.00188162 7.60311e-24)             (0.991433 0.00188199 1.38427e-23)
        0.945             (0.991422 -0.00188863 7.64003e-24)             (0.991422 0.001889 1.39104e-23)
         0.95             (0.991411 -0.00189565 7.67305e-24)             (0.991411 0.00189603 1.39708e-23)
        0.955             (0.9914 -0.0019027 7.7079e-24)             (0.9914 0.00190307 1.4034e-23)
         0.96             (0.991389 -0.00190975 7.74589e-24)             (0.991389 0.00191013 1.41028e-23)
        0.965             (0.991378 -0.00191683 7.76746e-24)             (0.991379 0.00191721 1.41416e-23)
         0.97             (0.991367 -0.00192393 7.80113e-24)             (0.991368 0.00192431 1.42022e-23)
        0.975             (0.991356 -0.00193104 7.83746e-24)             (0.991357 0.00193142 1.42671e-23)
         0.98             (0.991345 -0.00193817 7.87037e-24)             (0.991346 0.00193855 1.43271e-23)
        0.985             (0.991334 -0.00194531 7.90244e-24)             (0.991335 0.0019457 1.4385e-23)
         0.99             (0.991323 -0.00195248 7.93729e-24)             (0.991324 0.00195286 1.4448e-23)
        0.995             (0.991312 -0.00195966 7.97187e-24)             (0.991312 0.00196005 1.4511e-23)
            1             (0.991301 -0.00196686 8.01305e-24)             (0.991301 0.00196725 1.45856e-23)
        1.005             (0.99129 -0.00197407 8.03637e-24)             (0.99129 0.00197446 1.4628e-23)
         1.01             (0.991279 -0.00198131 8.06807e-24)             (0.991279 0.0019817 1.46855e-23)
        1.015             (0.991268 -0.00198855 8.10438e-24)             (0.991268 0.00198894 1.47531e-23)
         1.02             (0.991256 -0.0019958 8.1384e-24)             (0.991256 0.00199619 1.48171e-23)
        1.025             (0.991245 -0.00200305 8.16078e-24)             (0.991245 0.00200344 1.48628e-23)
         1.03             (0.991234 -0.00201024 8.15128e-24)             (0.991234 0.00201064 1.48691e-23)
        1.035             (0.991222 -0.00201758 8.26859e-24)             (0.991222 0.00201799 1.50431e-23)
         1.04             (0.991211 -0.00202493 8.32534e-24)             (0.991211 0.00202534 1.51459e-23)
        1.045             (0.991199 -0.0020323 8.36433e-24)             (0.9912 0.00203271 1.52161e-23)
         1.05             (0.991188 -0.00203969 8.39981e-24)             (0.991188 0.0020401 1.528e-23)
        1.055             (0.991176 -0.0020471 8.44032e-24)             (0.991177 0.00204751 1.53531e-23)
         1.06             (0.991165 -0.00205452 8.4847e-24)             (0.991165 0.00205493 1.54336e-23)
        1.065             (0.991153 -0.00206196 8.5192e-24)             (0.991153 0.00206237 1.54958e-23)
         1.07             (0.991142 -0.00206942 8.5441e-24)             (0.991142 0.00206983 1.55406e-23)
        1.075             (0.99113 -0.00207689 8.58322e-24)             (0.99113 0.00207731 1.56109e-23)
         1.08             (0.991118 -0.00208439 8.62369e-24)             (0.991119 0.00208481 1.56836e-23)
        1.085             (0.991107 -0.0020919 8.66785e-24)             (0.991107 0.00209232 1.57628e-23)
         1.09             (0.991095 -0.00209943 8.70731e-24)             (0.991095 0.00209985 1.58351e-23)
        1.095             (0.991083 -0.00210697 8.75018e-24)             (0.991083 0.0021074 1.5914e-23)
          1.1             (0.991071 -0.00211453 8.80088e-24)             (0.991071 0.00211496 1.60068e-23)
        1.105             (0.991059 -0.00212211 8.82868e-24)             (0.99106 0.00212254 1.60569e-23)
         1.11             (0.991048 -0.00212971 8.87047e-24)             (0.991048 0.00213014 1.61328e-23)
        1.115             (0.991036 -0.00213733 8.9126e-24)             (0.991036 0.00213776 1.62094e-23)
         1.12             (0.991024 -0.00214496 8.95477e-24)             (0.991024 0.0021454 1.62861e-23)
        1.125             (0.991012 -0.00215261 8.9973e-24)             (0.991012 0.00215305 1.63616e-23)
         1.13             (0.991 -0.00216028 9.03949e-24)             (0.991 0.00216072 1.6438e-23)
        1.135             (0.990988 -0.00216797 9.07989e-24)             (0.990988 0.00216842 1.65119e-23)
         1.14             (0.990976 -0.00217569 9.11843e-24)             (0.990976 0.00217613 1.65848e-23)
        1.145             (0.990963 -0.00218341 9.17842e-24)             (0.990964 0.00218385 1.66877e-23)
         1.15             (0.990951 -0.00219114 9.22696e-24)             (0.990952 0.00219159 1.67755e-23)
        1.155             (0.990939 -0.00219889 9.27977e-24)             (0.990939 0.00219935 1.68713e-23)
         1.16             (0.990927 -0.00220667 9.30705e-24)             (0.990927 0.00220712 1.692e-23)
        1.165             (0.990915 -0.00221446 9.35403e-24)             (0.990915 0.00221492 1.7005e-23)
         1.17             (0.990902 -0.00222227 9.40941e-24)             (0.990903 0.00222273 1.71045e-23)
        1.175             (0.99089 -0.0022301 9.45336e-24)             (0.99089 0.00223056 1.71837e-23)
         1.18             (0.990878 -0.00223796 9.48927e-24)             (0.990878 0.00223842 1.7248e-23)
        1.185             (0.990865 -0.00224581 9.55959e-24)             (0.990866 0.00224627 1.73772e-23)
         1.19             (0.990853 -0.00225368 9.5812e-24)             (0.990853 0.00225415 1.7416e-23)
        1.195             (0.99084 -0.00226157 9.62733e-24)             (0.990841 0.00226204 1.7499e-23)
          1.2             (0.990828 -0.00226947 9.67628e-24)             (0.990828 0.00226994 1.75869e-23)
        1.205             (0.990815 -0.0022774 9.72473e-24)             (0.990816 0.00227787 1.76749e-23)
         1.21             (0.990803 -0.00228534 9.77743e-24)             (0.990803 0.00228581 1.77693e-23)
        1.215             (0.99079 -0.00229329 9.83915e-24)             (0.990791 0.00229377 1.78797e-23)
         1.22             (0.990778 -0.00230127 9.86427e-24)             (0.990778 0.00230175 1.79237e-23)
        1.225             (0.990765 -0.00230927 9.91229e-24)             (0.990765 0.00230976 1.80082e-23)
         1.23             (0.990752 -0.0023173 9.96155e-24)             (0.990753 0.00231778 1.80909e-23)
        1.235             (0.99074 -0.00232537 1.00141e-23)             (0.99074 0.00232586 1.81602e-23)
         1.24             (0.990727 -0.00233343 1.00592e-23)             (0.990727 0.00233392 1.82736e-23)
        1.245             (0.990714 -0.00234147 1.01129e-23)             (0.990714 0.00234196 1.8384e-23)
         1.25             (0.990701 -0.00234953 1.01692e-23)             (0.990702 0.00235002 1.84874e-23)
        1.255             (0.990689 -0.0023576 1.02233e-23)             (0.990689 0.0023581 1.85868e-23)
         1.26             (0.990676 -0.00236569 1.02861e-23)             (0.990676 0.00236619 1.87008e-23)
        1.265             (0.990663 -0.00237381 1.03196e-23)             (0.990663 0.00237431 1.87604e-23)
         1.27             (0.99065 -0.00238195 1.03595e-23)             (0.99065 0.00238245 1.88316e-23)
        1.275             (0.990637 -0.0023901 1.04141e-23)             (0.990637 0.0023906 1.89298e-23)
         1.28             (0.990624 -0.00239825 1.04712e-23)             (0.990624 0.00239876 1.90342e-23)
        1.285             (0.990611 -0.00240642 1.05272e-23)             (0.990611 0.00240693 1.91359e-23)
         1.29             (0.990598 -0.00241461 1.05789e-23)             (0.990598 0.00241513 1.92295e-23)
        1.295             (0.990585 -0.00242282 1.06324e-23)             (0.990585 0.00242333 1.93255e-23)
          1.3             (0.990572 -0.00243104 1.0686e-23)             (0.990572 0.00243156 1.94227e-23)
        1.305             (0.990559 -0.00243928 1.07397e-23)             (0.990559 0.0024398 1.95195e-23)
         1.31             (0.990546 -0.00244754 1.07955e-23)             (0.990546 0.00244806 1.96208e-23)
        1.315             (0.990533 -0.00245581 1.08491e-23)             (0.990533 0.00245634 1.97178e-23)
         1.32             (0.990519 -0.0024641 1.0903e-23)             (0.99052 0.00246463 1.9816e-23)
        1.325             (0.990506 -0.00247241 1.09603e-23)             (0.990506 0.00247294 1.99195e-23)
         1.33             (0.990493 -0.00248073 1.10231e-23)             (0.990493 0.00248126 2.00337e-23)
        1.335             (0.99048 -0.00248906 1.10668e-23)             (0.99048 0.0024896 2.01126e-23)
         1.34             (0.990466 -0.00249742 1.11189e-23)             (0.990467 0.00249795 2.02071e-23)
        1.345             (0.990453 -0.00250578 1.11737e-23)             (0.990453 0.00250632 2.03063e-23)
         1.35             (0.99044 -0.00251417 1.12258e-23)             (0.99044 0.00251471 2.04007e-23)
        1.355             (0.990426 -0.00252257 1.12872e-23)             (0.990426 0.00252311 2.05118e-23)
         1.36             (0.990413 -0.00253099 1.13478e-23)             (0.990413 0.00253153 2.06216e-23)
        1.365             (0.990399 -0.00253942 1.14042e-23)             (0.9904 0.00253997 2.07235e-23)
         1.37             (0.990386 -0.00254786 1.14615e-23)             (0.990386 0.00254841 2.08275e-23)
        1.375             (0.990372 -0.00255632 1.15194e-23)             (0.990373 0.00255688 2.09325e-23)
         1.38             (0.990359 -0.0025648 1.15764e-23)             (0.990359 0.00256536 2.10355e-23)
        1.385             (0.990345 -0.00257329 1.16345e-23)             (0.990345 0.00257385 2.11409e-23)
         1.39             (0.990332 -0.0025818 1.16869e-23)             (0.990332 0.00258236 2.12357e-23)
        1.395             (0.990318 -0.00259032 1.17565e-23)             (0.990318 0.00259089 2.13626e-23)