/*--------------------------------*- C++ -*----------------------------------*\
  =========                 |
  \\      /  F ield         | OpenFOAM: The Open Source CFD Toolbox
   \\    /   O peration     | Website:  https://openfoam.org
    \\  /    A nd           | Version:  7
     \\/     M anipulation  |
\*---------------------------------------------------------------------------*/
FoamFile
{
    version     2.0;
    format      ascii;
    class       volScalarField;
    location    "5";
    object      p;
}
// * * * * * * * * * * * * * * * * * * * * * * * * * * * * * * * * * * * * * //

dimensions      [0 2 -2 0 0 0 0];

internalField   nonuniform List<scalar> 
6386
(
-0.328107
-0.334916
-0.338548
-0.342989
-0.349015
-0.356973
-0.367075
-0.379355
-0.393679
-0.410054
-0.329231
-0.335805
-0.339369
-0.343775
-0.349782
-0.357738
-0.367854
-0.380174
-0.394528
-0.410919
-0.331401
-0.337518
-0.340947
-0.345277
-0.35124
-0.359182
-0.369311
-0.381691
-0.396091
-0.412468
-0.334473
-0.339936
-0.343162
-0.347368
-0.35325
-0.361146
-0.371262
-0.383689
-0.398128
-0.414377
-0.338252
-0.342897
-0.345854
-0.349878
-0.355623
-0.36342
-0.373464
-0.385875
-0.400326
-0.416228
-0.342509
-0.346217
-0.348838
-0.352613
-0.358147
-0.365764
-0.375641
-0.387925
-0.402353
-0.417571
-0.347004
-0.349707
-0.35193
-0.355379
-0.360608
-0.367939
-0.377526
-0.389518
-0.403897
-0.417969
-0.35151
-0.353192
-0.354963
-0.358001
-0.362816
-0.369733
-0.378884
-0.390365
-0.404708
-0.417116
-0.35583
-0.356527
-0.357803
-0.360343
-0.364623
-0.370982
-0.379543
-0.390249
-0.404488
-0.415285
-0.359802
-0.359606
-0.360359
-0.362317
-0.36594
-0.37159
-0.379413
-0.389342
-0.402758
-0.412395
-0.363328
-0.362368
-0.36258
-0.363886
-0.366739
-0.371535
-0.378468
-0.387407
-0.400064
-0.408182
-0.366358
-0.36479
-0.364465
-0.365064
-0.36705
-0.370873
-0.376791
-0.384586
-0.396549
-0.402864
-0.368896
-0.366892
-0.366047
-0.365906
-0.366957
-0.36972
-0.374545
-0.381117
-0.392417
-0.396775
-0.370996
-0.368722
-0.36739
-0.366499
-0.366585
-0.368244
-0.371941
-0.377285
-0.387975
-0.390272
-0.372756
-0.370359
-0.368577
-0.366952
-0.366078
-0.366641
-0.369219
-0.373411
-0.383533
-0.383809
-0.371901
-0.369708
-0.367386
-0.365596
-0.365117
-0.366622
-0.369826
-0.379284
-0.377841
-0.373462
-0.370895
-0.367928
-0.365297
-0.36387
-0.36437
-0.366837
-0.375235
-0.372726
-0.375166
-0.372256
-0.368705
-0.365329
-0.363072
-0.36264
-0.364679
-0.37127
-0.368636
-0.373905
-0.369837
-0.36582
-0.362859
-0.361595
-0.363426
-0.367381
-0.366281
-0.375951
-0.371425
-0.366866
-0.363312
-0.361302
-0.362884
-0.363885
-0.367794
-0.373547
-0.368523
-0.364451
-0.361769
-0.362682
-0.361313
-0.372476
-0.370807
-0.366247
-0.362912
-0.362633
-0.359945
-0.366808
-0.373703
-0.368634
-0.364574
-0.362801
-0.358645
-0.360393
-0.371529
-0.366598
-0.363148
-0.357172
-0.354644
-0.368861
-0.363537
-0.355505
-0.349118
-0.363842
-0.353541
-0.343867
-0.351263
-0.338716
-0.333592
-0.348622
-0.333559
-0.351238
-0.338685
-0.363825
-0.353518
-0.343837
-0.368849
-0.36352
-0.355483
-0.34909
-0.371519
-0.366585
-0.363132
-0.357151
-0.354616
-0.373695
-0.368624
-0.364562
-0.362785
-0.358625
-0.360367
-0.370798
-0.366237
-0.3629
-0.362618
-0.359925
-0.366782
-0.373538
-0.368513
-0.36444
-0.361756
-0.362667
-0.361293
-0.372451
-0.375942
-0.371416
-0.366856
-0.3633
-0.361289
-0.362868
-0.363865
-0.367768
-0.373895
-0.369826
-0.365809
-0.362847
-0.361581
-0.363409
-0.367361
-0.366253
-0.375155
-0.372245
-0.368694
-0.365318
-0.363059
-0.362626
-0.364661
-0.37125
-0.368607
-0.37345
-0.370884
-0.367916
-0.365285
-0.363856
-0.364355
-0.366818
-0.375215
-0.372695
-0.374294
-0.371888
-0.369696
-0.367374
-0.365584
-0.365103
-0.366606
-0.369807
-0.379263
-0.377809
-0.372741
-0.370346
-0.368564
-0.366939
-0.366065
-0.366626
-0.369202
-0.373391
-0.38351
-0.383776
-0.370981
-0.368708
-0.367376
-0.366486
-0.366571
-0.368228
-0.371923
-0.377263
-0.38795
-0.390238
-0.368881
-0.366877
-0.366034
-0.365892
-0.366943
-0.369704
-0.374526
-0.381095
-0.392391
-0.396741
-0.366342
-0.364776
-0.364451
-0.36505
-0.367035
-0.370856
-0.376772
-0.384563
-0.396522
-0.402829
-0.363312
-0.362353
-0.362566
-0.363872
-0.366723
-0.371518
-0.378448
-0.387383
-0.400036
-0.408146
-0.359786
-0.359591
-0.360344
-0.362303
-0.365925
-0.371572
-0.379393
-0.389317
-0.40273
-0.412359
-0.355813
-0.356512
-0.357788
-0.360329
-0.364608
-0.370965
-0.379523
-0.390223
-0.404461
-0.415248
-0.351494
-0.353178
-0.354949
-0.357987
-0.362801
-0.369716
-0.378865
-0.39034
-0.404679
-0.417081
-0.346989
-0.349693
-0.351917
-0.355365
-0.360594
-0.367923
-0.377507
-0.389495
-0.40387
-0.417935
-0.342495
-0.346205
-0.348826
-0.352601
-0.358134
-0.365749
-0.375623
-0.387904
-0.402327
-0.417539
-0.338241
-0.342887
-0.345843
-0.349867
-0.355611
-0.363407
-0.373448
-0.385856
-0.400303
-0.4162
-0.334464
-0.339928
-0.343154
-0.347359
-0.35324
-0.361135
-0.37125
-0.383673
-0.398109
-0.414353
-0.331394
-0.337512
-0.340941
-0.34527
-0.351233
-0.359174
-0.369302
-0.38168
-0.396077
-0.41245
-0.329227
-0.335801
-0.339365
-0.343771
-0.349778
-0.357733
-0.367848
-0.380167
-0.394519
-0.410908
-0.328106
-0.334915
-0.338546
-0.342988
-0.349013
-0.356972
-0.367073
-0.379353
-0.393676
-0.410051
-0.425675
-0.438618
-0.450797
-0.46111
-0.468763
-0.472761
-0.472002
-0.465187
-0.4513
-0.429423
-0.398661
-0.358555
-0.309439
-0.252848
-0.191663
-0.129894
-0.0718255
-0.0210477
0.0202254
0.0513416
0.0727831
0.0858734
0.0922576
0.0935913
0.0913405
0.0867249
0.0806745
0.0738954
0.0668471
0.059881
0.053145
0.0468087
0.0408226
0.0353169
0.0301051
0.0253998
0.0208523
0.0168556
0.0127727
0.00933271
0.00537991
0.00228484
-0.427023
-0.440005
-0.45229
-0.462717
-0.470498
-0.474642
-0.474066
-0.467474
-0.453833
-0.432217
-0.401707
-0.361801
-0.312778
-0.256125
-0.194721
-0.132603
-0.0741364
-0.0230044
0.0186232
0.0500324
0.0717147
0.0850034
0.0915515
0.0930204
0.0908808
0.0863557
0.0803786
0.0736585
0.0666576
0.0597294
0.053024
0.0467128
0.0407472
0.0352584
0.0300604
0.025366
0.0208274
0.0168372
0.0127601
0.00932375
0.0053753
0.00228172
-0.429485
-0.442536
-0.455021
-0.46567
-0.473702
-0.478128
-0.477906
-0.471749
-0.45859
-0.437493
-0.407487
-0.367995
-0.319183
-0.262444
-0.200649
-0.137891
-0.0786945
-0.0268447
0.0154478
0.0474242
0.0695797
0.0832615
0.0901367
0.0918765
0.08996
0.0856168
0.079787
0.0731855
0.0662795
0.0594274
0.0527834
0.046522
0.0405973
0.035142
0.0299714
0.0252987
0.0207776
0.0168006
0.0127348
0.00930587
0.00536611
0.00227552
-0.432637
-0.445783
-0.458537
-0.469504
-0.477901
-0.482737
-0.483019
-0.477489
-0.465023
-0.444689
-0.415441
-0.376594
-0.328154
-0.271365
-0.209107
-0.145537
-0.0853577
-0.0324225
0.0107658
0.043546
0.0663882
0.08065
0.0880126
0.0901587
0.0885781
0.0845091
0.0789013
0.0724786
0.0657156
0.0589778
0.0524256
0.0462385
0.0403747
0.0349691
0.029839
0.0251985
0.0207035
0.016746
0.0126972
0.00927917
0.00535239
0.0022663
-0.435941
-0.449195
-0.462262
-0.473635
-0.482497
-0.487866
-0.488769
-0.484021
-0.472441
-0.453104
-0.424858
-0.386897
-0.339041
-0.282324
-0.219676
-0.155227
-0.0937546
-0.0396419
0.00466642
0.0384461
0.062164
0.0771802
0.0851847
0.0878702
0.0867378
0.0830356
0.0777252
0.0715416
0.0649699
0.0583846
0.0519544
0.0458656
0.040082
0.0347415
0.0296647
0.0250664
0.0206057
0.0166738
0.0126473
0.00924381
0.00533423
0.00225418
-0.438827
-0.452193
-0.465598
-0.47745
-0.486864
-0.492871
-0.494489
-0.490594
-0.480127
-0.461997
-0.434979
-0.398149
-0.351151
-0.294736
-0.231847
-0.166412
-0.103653
-0.048311
-0.00273767
0.0321943
0.0569497
0.072878
0.0816694
0.0850226
0.0844478
0.0812038
0.0762652
0.0703808
0.0640481
0.057653
0.0513743
0.0454073
0.0397222
0.0344617
0.0294501
0.0249034
0.0204849
0.0165845
0.0125856
0.00919998
0.00531172
0.00223929
-0.44083
-0.454244
-0.468006
-0.480397
-0.490437
-0.497175
-0.499591
-0.496535
-0.487448
-0.470699
-0.445107
-0.409654
-0.363827
-0.307958
-0.244848
-0.178564
-0.114887
-0.058211
-0.0113062
0.024887
0.05081
0.0677869
0.077497
0.0816375
0.0817242
0.0790261
0.0745315
0.0690046
0.0629574
0.0567892
0.0506909
0.0448679
0.0392991
0.0341324
0.0291972
0.024711
0.020342
0.0164786
0.0125124
0.00914791
0.00528499
0.00222177
-0.441658
-0.454945
-0.469077
-0.482046
-0.49277
-0.500323
-0.503667
-0.501638
-0.493937
-0.478665
-0.454665
-0.420822
-0.376359
-0.320984
-0.258196
-0.191622
-0.127004
-0.0690994
-0.0208687
0.016645
0.0438303
0.0619682
0.0727114
0.0777468
0.0785906
0.0765205
0.072538
0.067424
0.0617069
0.0558007
0.0499102
0.0442524
0.0388164
0.0337565
0.0289082
0.0244907
0.020178
0.0163569
0.0124281
0.00908785
0.00525419
0.00220179
-0.440249
-0.454234
-0.468591
-0.482117
-0.493569
-0.502
-0.50642
-0.506007
-0.499218
-0.485416
-0.463071
-0.430902
-0.387954
-0.334007
-0.271639
-0.204969
-0.139677
-0.080722
-0.0312365
0.00760673
0.0361132
0.0554976
0.0673687
0.0733919
0.0750775
0.07371
0.070302
0.0656523
0.0603067
0.0546955
0.0490387
0.0435661
0.0382783
0.033337
0.0285852
0.024244
0.0199941
0.01622
0.0123332
0.00902009
0.00521946
0.00217953
-0.437114
-0.451904
-0.466466
-0.480519
-0.492687
-0.501996
-0.507499
-0.50829
-0.502948
-0.490715
-0.470133
-0.439809
-0.398579
-0.346152
-0.284635
-0.218233
-0.152597
-0.0928255
-0.0422132
-0.00207799
0.0277725
0.048461
0.0615334
0.0686206
0.0712206
0.070621
0.0678435
0.0637045
0.0587682
0.0534825
0.0480831
0.0428142
0.0376889
0.0328772
0.0282306
0.0239725
0.0197913
0.0160687
0.0122281
0.00894493
0.00518097
0.00215514
-0.432592
-0.448009
-0.46279
-0.477303
-0.490161
-0.50034
-0.506905
-0.508909
-0.505034
-0.4944
-0.475602
-0.447184
-0.407833
-0.357127
-0.296841
-0.23109
-0.165475
-0.105169
-0.053604
-0.0122553
0.0189277
0.04095
0.0552747
0.0634851
0.0670587
0.0672823
0.0651839
0.0615967
0.0571036
0.0521706
0.0470505
0.042002
0.0370521
0.0323801
0.0278466
0.0236779
0.0195707
0.0159037
0.0121133
0.00886267
0.00513887
0.00212879
-0.426902
-0.442857
-0.457775
-0.47264
-0.486113
-0.497103
-0.504688
-0.507868
-0.505466
-0.496419
-0.479386
-0.452884
-0.415508
-0.366706
-0.307977
-0.243268
-0.178059
-0.117529
-0.0652215
-0.0227734
0.00969876
0.0330574
0.0486633
0.0580386
0.0626318
0.0637234
0.0623455
0.0593455
0.0553251
0.050769
0.0459475
0.0411347
0.0363721
0.0318486
0.0274356
0.0233617
0.0193335
0.0157257
0.0119893
0.00877363
0.00509333
0.00210064
-0.420507
-0.436803
-0.451692
-0.466782
-0.480757
-0.492461
-0.50099
-0.505281
-0.504298
-0.496802
-0.481484
-0.456856
-0.421486
-0.374724
-0.317842
-0.254551
-0.190137
-0.129712
-0.0768965
-0.0334922
0.000197697
0.0248705
0.0417663
0.0523322
0.0579785
0.0599727
0.0593495
0.0569668
0.0534448
0.0492868
0.0447811
0.0402175
0.0356527
0.0312858
0.0269996
0.0230256
0.0190808
0.0155356
0.0118565
0.00867812
0.00504453
0.00207082
-0.413907
-0.430211
-0.444844
-0.460014
-0.474348
-0.486634
-0.496001
-0.501326
-0.501627
-0.495598
-0.481921
-0.459108
-0.425721
-0.381089
-0.326306
-0.264791
-0.201551
-0.141563
-0.0884888
-0.0442917
-0.00947738
0.0164674
0.0346446
0.0464128
0.0531344
0.0560572
0.056216
0.0544758
0.051474
0.0477324
0.0435575
0.039255
0.0348974
0.0306944
0.0265407
0.0226711
0.0188136
0.015334
0.0117155
0.00857646
0.00499264
0.00203944
-0.407501
-0.423406
-0.437525
-0.452611
-0.467127
-0.479837
-0.489907
-0.496125
-0.497559
-0.49288
-0.480739
-0.459662
-0.42824
-0.38579
-0.333305
-0.273888
-0.212179
-0.152946
-0.0998627
-0.0550482
-0.0192205
0.00793472
0.0273668
0.0403335
0.0481394
0.0520067
0.0529665
0.051888
0.0494238
0.0461139
0.0422827
0.0382517
0.0341096
0.0300768
0.0260608
0.0222996
0.0185329
0.0151216
0.0115665
0.00846893
0.0049378
0.0020066
-0.401541
-0.416616
-0.429979
-0.444801
-0.459294
-0.472245
-0.482864
-0.489807
-0.492198
-0.488719
-0.477988
-0.458552
-0.429064
-0.388856
-0.3388
-0.281728
-0.221851
-0.163664
-0.110817
-0.0655777
-0.0288768
-0.00060428
0.0200269
0.0341637
0.0430443
0.0478579
0.0496267
0.0492214
0.0473069
0.0444399
0.0409625
0.0372118
0.0332923
0.0294351
0.0255615
0.021912
0.0182395
0.0148989
0.01141
0.00835571
0.00488011
0.00197235
-0.396121
-0.409925
-0.422365
-0.436756
-0.450997
-0.463983
-0.475041
-0.48251
-0.48567
-0.483221
-0.473758
-0.455861
-0.42826
-0.390323
-0.342804
-0.288243
-0.230451
-0.173586
-0.121234
-0.0757874
-0.0383771
-0.00910014
0.0126599
0.027929
0.0378684
0.0436265
0.0462104
0.046489
0.0451344
0.0427195
0.039604
0.0361403
0.0324492
0.0287724
0.0250447
0.0215101
0.0179344
0.0146668
0.0112465
0.0082372
0.00481973
0.00193674
-0.391138
-0.403223
-0.414712
-0.428572
-0.44235
-0.455158
-0.466729
-0.474191
-0.478006
-0.47646
-0.468178
-0.451792
-0.426124
-0.39059
-0.345811
-0.294007
-0.238584
-0.183327
-0.1317
-0.0861933
-0.0481451
-0.0178791
0.00502857
0.0214654
0.0325042
0.0392451
0.0426771
0.0436703
0.0428991
0.0409529
0.038211
0.0350428
0.031586
0.0280938
0.0245152
0.0210977
0.0176207
0.0144277
0.0110776
0.0081149
0.00475744
0.0019001
-0.387118
-0.396501
-0.406898
-0.420021
-0.433076
-0.445445
-0.455857
-0.464362
-0.468716
-0.468049
-0.461033
-0.44635
-0.422914
-0.390154
-0.34851
-0.299794
-0.246984
-0.193535
-0.142749
-0.0972147
-0.0584977
-0.0271709
-0.00302764
0.0146638
0.0268784
0.0346652
0.0389921
0.0407341
0.0405773
0.0391242
0.0367739
0.0339141
0.0307007
0.0273992
0.0239738
0.0206761
0.0172999
0.014183
0.0109047
0.00798965
0.0046942
0.00186264
-0.384562
-0.38958
-0.399196
-0.41116
-0.422997
-0.434568
-0.444912
-0.453866
-0.458259
-0.458015
-0.451882
-0.438523
-0.4169
-0.386446
-0.347471
-0.301487
-0.251119
-0.199568
-0.150016
-0.105067
-0.0663683
-0.0346255
-0.00979259
0.0087228
0.0217935
0.0303992
0.0354673
0.0378521
0.0382463
0.0372543
0.0352836
0.0327295
0.0297639
0.0266583
0.0233941
0.0202213
0.0169534
0.0139159
0.0107164
0.00785086
0.00462563
0.00182164
-0.367596
-0.377278
-0.391723
-0.404487
-0.415917
-0.427146
-0.436563
-0.444069
-0.447956
-0.447196
-0.440569
-0.426899
-0.405298
-0.375389
-0.337628
-0.293531
-0.245557
-0.196635
-0.14962
-0.106826
-0.0697469
-0.0390436
-0.0147173
0.00371507
0.0170037
0.0260126
0.0315822
0.0344985
0.0354074
0.0348813
0.0333241
0.0311202
0.0284578
0.0255997
0.0225534
0.0195492
0.0164379
0.0135099
0.0104304
0.00763421
0.0045192
0.00175867
-0.363461
-0.371664
-0.383061
-0.393149
-0.402022
-0.410114
-0.417926
-0.423436
-0.425514
-0.42314
-0.415361
-0.401282
-0.380253
-0.352095
-0.31732
-0.277252
-0.233933
-0.189775
-0.147133
-0.107958
-0.0735752
-0.0446446
-0.0212675
-0.00313062
0.0103305
0.0198108
0.0260162
0.0296301
0.0312349
0.0313601
0.0303928
0.0287023
0.026485
0.0239987
0.0212728
0.0185283
0.0156478
0.012898
0.00999186
0.00731638
0.00434988
0.00167263
-0.353163
-0.361538
-0.369536
-0.376804
-0.383677
-0.390212
-0.395943
-0.399556
-0.399993
-0.396399
-0.388021
-0.374172
-0.354367
-0.328528
-0.297124
-0.261245
-0.222529
-0.182932
-0.14441
-0.108635
-0.0768089
-0.0496
-0.0272063
-0.00945939
0.00405029
0.0138738
0.0205996
0.0248188
0.0270524
0.0277848
0.0273806
0.0261913
0.0244156
0.0223053
0.0199066
0.0174331
0.0147932
0.0122352
0.00951176
0.00697194
0.00416051
0.00158556
-0.338431
-0.347341
-0.352905
-0.357695
-0.362784
-0.367816
-0.371897
-0.373939
-0.373099
-0.36871
-0.360168
-0.346929
-0.32863
-0.305236
-0.277152
-0.24526
-0.210877
-0.175583
-0.140992
-0.108522
-0.0792428
-0.0538132
-0.0325039
-0.0152673
-0.00183097
0.00822418
0.0153753
0.0201243
0.0229292
0.024227
0.0243574
0.0236515
0.0223076
0.0205697
0.0184981
0.0162985
0.0139032
0.0115426
0.0090072
0.00661067
0.00395953
0.00149829
-0.320591
-0.330095
-0.334325
-0.337249
-0.340718
-0.344367
-0.347116
-0.347944
-0.34618
-0.341325
-0.332906
-0.320496
-0.303815
-0.28285
-0.257934
-0.229772
-0.199408
-0.168105
-0.137181
-0.107833
-0.0810111
-0.057354
-0.0371849
-0.0205526
-0.00729917
0.00287952
0.0103598
0.0155591
0.0188732
0.0206911
0.0213246
0.0210828
0.0201597
0.0187899
0.0170451
0.0151222
0.0129755
0.0108184
0.00847671
0.00623151
0.00374624
0.00140913
-0.301168
-0.311004
-0.314564
-0.316252
-0.318432
-0.32093
-0.322646
-0.322599
-0.320231
-0.315173
-0.307073
-0.2956
-0.280537
-0.261875
-0.239878
-0.2151
-0.188362
-0.160667
-0.13309
-0.10664
-0.0821547
-0.0602396
-0.0412473
-0.0252983
-0.0123274
-0.00212825
0.00558539
0.0111529
0.0149098
0.0171975
0.0182981
0.0184964
0.0179795
0.0169707
0.01555
0.0139053
0.0120102
0.0100625
0.00791984
0.00583411
0.00352028
0.00131748
-0.281423
-0.291137
-0.294347
-0.295315
-0.296587
-0.298197
-0.299133
-0.298491
-0.295779
-0.290721
-0.283066
-0.272564
-0.259043
-0.242493
-0.223116
-0.201347
-0.177826
-0.153354
-0.128803
-0.105018
-0.082734
-0.0625099
-0.04471
-0.0295051
-0.0169022
-0.00677681
0.00107898
0.00693366
0.0110658
0.0137702
0.0152982
0.0159091
0.0157802
0.0151221
0.0140204
0.0126534
0.0110114
0.00927762
0.00733834
0.00541952
0.00328238
0.00122331
-0.261944
-0.27125
-0.274256
-0.274848
-0.275533
-0.276499
-0.276883
-0.275866
-0.27301
-0.268102
-0.260966
-0.251421
-0.239331
-0.224682
-0.20763
-0.18851
-0.167827
-0.146217
-0.124385
-0.103037
-0.0828076
-0.0642081
-0.0475987
-0.0331817
-0.0210188
-0.0110515
-0.00313868
0.00292484
0.00736487
0.0104313
0.0123445
0.0133372
0.0135752
0.0132547
0.0124643
0.0113726
0.00998354
0.00846684
0.0067345
0.00498912
0.00303351
0.00112668
-0.24308
-0.251838
-0.254687
-0.255105
-0.255442
-0.255979
-0.255996
-0.254771
-0.251914
-0.247259
-0.240684
-0.23206
-0.221281
-0.208334
-0.193334
-0.176544
-0.158357
-0.13928
-0.119882
-0.100751
-0.0824299
-0.0653791
-0.049944
-0.036344
-0.0246794
-0.0149438
-0.00705195
-0.000853951
0.0038279
0.00720112
0.00945544
0.0107969
0.0113779
0.0113793
0.0108904
0.0100692
0.00893144
0.00763373
0.00611082
0.00454444
0.00277472
0.00102772
-0.225039
-0.233176
-0.235883
-0.236236
-0.23639
-0.236662
-0.236458
-0.235149
-0.232395
-0.228061
-0.222066
-0.214318
-0.204737
-0.193309
-0.180122
-0.165378
-0.149387
-0.13255
-0.11533
-0.0982087
-0.0816525
-0.0660684
-0.0517803
-0.0390125
-0.0278916
-0.0184505
-0.0106497
-0.00438659
0.000473416
0.00409859
0.00664898
0.00830423
0.00920195
0.00950719
0.00930774
0.0087505
0.00786057
0.00678224
0.00547018
0.00408731
0.00250716
0.000926662
-0.207906
-0.215408
-0.217977
-0.218325
-0.218399
-0.218527
-0.218213
-0.216913
-0.214332
-0.210363
-0.20495
-0.198028
-0.189538
-0.179468
-0.167883
-0.15494
-0.140882
-0.12603
-0.110754
-0.0954538
-0.0805239
-0.0663212
-0.0531433
-0.0412116
-0.0306675
-0.021573
-0.0139249
-0.00766038
-0.00268262
0.00114087
0.003942
0.00587468
0.00706118
0.00765001
0.0077258
0.00742398
0.00677686
0.0059168
0.00481586
0.00361985
0.00223217
0.000823849
-0.191724
-0.198608
-0.201042
-0.201416
-0.201474
-0.201539
-0.201197
-0.199972
-0.197611
-0.194027
-0.189183
-0.183035
-0.175539
-0.166683
-0.156516
-0.145161
-0.13281
-0.119715
-0.106177
-0.0925248
-0.0790892
-0.0661812
-0.0540701
-0.0429677
-0.0330226
-0.0243166
-0.0168744
-0.0106659
-0.00562688
-0.00165674
0.00135022
0.00352326
0.00496911
0.0058195
0.00615449
0.00609768
0.00568668
0.00504226
0.00415145
0.00314443
0.00195124
0.000719703
-0.176518
-0.18281
-0.185113
-0.185528
-0.185608
-0.185659
-0.185348
-0.184241
-0.182125
-0.178931
-0.174635
-0.169206
-0.162612
-0.154842
-0.145935
-0.135984
-0.12514
-0.113605
-0.10162
-0.0894564
-0.0773905
-0.0656907
-0.0545976
-0.0443095
-0.0349755
-0.0266902
-0.0194987
-0.0133972
-0.00834875
-0.004281
-0.00111206
0.00126415
0.00293895
0.00402741
0.00460389
0.00477995
0.00459676
0.00416379
0.00348087
0.00266367
0.00166599
0.000614705
-0.162287
-0.168019
-0.170197
-0.17066
-0.170793
-0.170885
-0.170609
-0.16964
-0.16778
-0.164969
-0.161191
-0.156427
-0.150651
-0.143854
-0.136065
-0.127356
-0.117846
-0.107696
-0.0971004
-0.08628
-0.0754668
-0.0648902
-0.0547627
-0.0452667
-0.0365474
-0.0287059
-0.0218016
-0.0158514
-0.0108404
-0.00672091
-0.00343218
-0.00088959
0.000983292
0.00228521
0.00308408
0.00347927
0.00351408
0.00328686
0.00280825
0.00218042
0.00137814
0.000509393
-0.149018
-0.154224
-0.156278
-0.156788
-0.156975
-0.1571
-0.156906
-0.156093
-0.154491
-0.152049
-0.148756
-0.144601
-0.139564
-0.133637
-0.126842
-0.119233
-0.110906
-0.101986
-0.0926327
-0.0830243
-0.0733543
-0.063818
-0.0546014
-0.0458699
-0.0377611
-0.0303783
-0.0237902
-0.0180286
-0.013097
-0.00896782
-0.0055993
-0.00292617
-0.000886102
0.000603968
0.00160499
0.00220421
0.00244578
0.00241714
0.00213794
0.00169767
0.00108952
0.000404344
-0.136685
-0.141401
-0.143335
-0.143886
-0.14413
-0.144307
-0.144198
-0.143541
-0.142186
-0.14009
-0.137245
-0.133645
-0.129274
-0.124125
-0.118213
-0.11158
-0.1043
-0.0964753
-0.0882314
-0.0797151
-0.0710863
-0.0625104
-0.0541488
-0.0461496
-0.038641
-0.0317245
-0.0254739
-0.019932
-0.015116
-0.0110155
-0.00760453
-0.0048353
-0.00265849
-0.00100591
0.000176206
0.000963191
0.00139901
0.00156041
0.00147442
0.00121855
0.000802048
0.000300171
-0.125254
-0.129516
-0.131333
-0.131919
-0.132219
-0.132451
-0.132429
-0.131923
-0.130799
-0.129022
-0.126587
-0.123489
-0.119715
-0.11526
-0.110131
-0.104363
-0.098013
-0.0911612
-0.0839091
-0.0763758
-0.0686936
-0.0610016
-0.0534389
-0.0461367
-0.0392123
-0.0327633
-0.026865
-0.0215675
-0.0168981
-0.0128601
-0.00944105
-0.0066083
-0.00432434
-0.00253483
-0.00119317
-0.000235587
0.00038085
0.000722489
0.000822214
0.00074626
0.000517681
0.000197507
-0.114683
-0.118528
-0.120232
-0.120847
-0.121199
-0.121483
-0.121543
-0.121175
-0.120266
-0.11878
-0.116716
-0.114069
-0.11083
-0.106991
-0.102558
-0.0975562
-0.0920301
-0.0860434
-0.0796771
-0.0730278
-0.0662044
-0.0593235
-0.052504
-0.0458611
-0.0395009
-0.0335149
-0.0279777
-0.0229432
-0.0184461
-0.0145003
-0.0111042
-0.00823827
-0.0058755
-0.0039742
-0.00249472
-0.00138436
-0.000601853
-9.09228e-05
0.000185854
0.000284042
0.000238402
9.69963e-05
-0.104929
-0.108391
-0.109986
-0.110623
-0.111021
-0.111356
-0.111488
-0.111241
-0.110524
-0.109303
-0.107574
-0.105331
-0.102567
-0.0992755
-0.0954588
-0.0911354
-0.0863395
-0.0811213
-0.0755456
-0.0696902
-0.0636446
-0.0575058
-0.0513751
-0.0453526
-0.0395329
-0.0340008
-0.0288279
-0.0240696
-0.0197654
-0.015937
-0.0125914
-0.00972013
-0.00730528
-0.00531656
-0.00372085
-0.0024759
-0.0015426
-0.000874301
-0.000430241
-0.000164914
-3.38182e-05
-7.1804e-07
-0.0959431
-0.0990573
-0.100548
-0.1012
-0.101635
-0.102009
-0.102207
-0.102074
-0.10153
-0.100543
-0.0991101
-0.0972262
-0.0948837
-0.092076
-0.088804
-0.0850802
-0.0809308
-0.0763949
-0.071524
-0.0663807
-0.0610379
-0.0555764
-0.0500815
-0.0446397
-0.0393345
-0.034243
-0.0294328
-0.024959
-0.0208634
-0.0171732
-0.0139021
-0.0110507
-0.00860862
-0.00655573
-0.00486495
-0.00350372
-0.00243537
-0.00162243
-0.00102183
-0.000597513
-0.000297058
-9.50048e-05
-0.087679
-0.0904767
-0.0918683
-0.092527
-0.0929925
-0.0934021
-0.0936568
-0.093624
-0.0932296
-0.0924496
-0.0912783
-0.089711
-0.0877402
-0.0853593
-0.0825674
-0.0793728
-0.075795
-0.0718641
-0.0676207
-0.063115
-0.0584062
-0.0535609
-0.0486508
-0.0437499
-0.0389312
-0.0342641
-0.029811
-0.0256254
-0.0217494
-0.0182142
-0.015038
-0.0122287
-0.00978209
-0.00768693
-0.0059215
-0.00446212
-0.00327475
-0.00233052
-0.00158495
-0.00101082
-0.000549481
-0.000185258
-0.0800892
-0.0826005
-0.0838978
-0.0845582
-0.0850473
-0.0854855
-0.085789
-0.0858422
-0.0855762
-0.0849752
-0.0840337
-0.0827453
-0.0811015
-0.0790957
-0.0767259
-0.0739975
-0.0709241
-0.0675289
-0.0638434
-0.0599076
-0.0557694
-0.0514833
-0.047109
-0.0427096
-0.0383483
-0.0340867
-0.0299816
-0.0260837
-0.0224345
-0.019067
-0.0160025
-0.0132546
-0.010824
-0.0087068
-0.00688616
-0.00534636
-0.00405603
-0.00299427
-0.00211597
-0.00140213
-0.000789377
-0.00027091
-0.0731282
-0.0753808
-0.0765893
-0.0772466
-0.0777526
-0.078212
-0.0785528
-0.0786753
-0.0785217
-0.0780804
-0.0773393
-0.0762935
-0.0749355
-0.0732584
-0.071259
-0.06894
-0.0663111
-0.0633892
-0.0601989
-0.0567716
-0.0531456
-0.0493654
-0.0454805
-0.041544
-0.0376102
-0.0337334
-0.0299644
-0.0263505
-0.0229312
-0.0197404
-0.0168011
-0.0141308
-0.0117342
-0.00961351
-0.00775591
-0.00615276
-0.00477533
-0.00361002
-0.00261173
-0.00176902
-0.0010152
-0.000351447
-0.066752
-0.0687716
-0.0698967
-0.0705465
-0.0710635
-0.0715387
-0.0719118
-0.0720979
-0.0720443
-0.0717279
-0.0711564
-0.0703225
-0.0692144
-0.0678241
-0.0661483
-0.0641881
-0.0619497
-0.0594453
-0.0566934
-0.0537187
-0.0505514
-0.0472277
-0.0437881
-0.0402771
-0.0367408
-0.0332265
-0.0297794
-0.0264426
-0.0232533
-0.0202448
-0.0174408
-0.0148615
-0.0125144
-0.0104067
-0.00852902
-0.00687874
-0.00542966
-0.00417478
-0.00306955
-0.00210941
-0.00122559
-0.000426419
-0.0609191
-0.0627294
-0.0637763
-0.0644153
-0.0649381
-0.065423
-0.0658188
-0.0660519
-0.0660766
-0.0658778
-0.0654555
-0.0648033
-0.063911
-0.0627702
-0.0613766
-0.0597299
-0.0578338
-0.0556968
-0.0533324
-0.0507595
-0.048002
-0.0450888
-0.0420529
-0.0389312
-0.0357627
-0.032588
-0.0294467
-0.0263778
-0.0234154
-0.0205917
-0.01793
-0.0154523
-0.0131678
-0.0110877
-0.00920515
-0.0075229
-0.006017
-0.00468636
-0.00348734
-0.00242162
-0.00141944
-0.000495454
-0.0555906
-0.057213
-0.058187
-0.0588123
-0.0593363
-0.0598261
-0.0602385
-0.0605111
-0.0606053
-0.0605054
-0.0602055
-0.0597071
-0.0590014
-0.0580774
-0.056929
-0.0555553
-0.0539584
-0.0521436
-0.0501206
-0.0479036
-0.0455111
-0.0429659
-0.0402947
-0.0375278
-0.0346977
-0.0318391
-0.0289863
-0.026174
-0.023433
-0.0207938
-0.0182786
-0.0159104
-0.0136991
-0.011659
-0.00978529
-0.00808501
-0.00653636
-0.00514335
-0.00386362
-0.00270442
-0.00159589
-0.000558268
-0.0507303
-0.0521845
-0.0530906
-0.0537002
-0.0542217
-0.0547123
-0.0551358
-0.0554388
-0.0555877
-0.0555688
-0.0553776
-0.0550115
-0.0544649
-0.0537271
-0.052791
-0.0516544
-0.0503181
-0.0487853
-0.0470624
-0.0451597
-0.0430912
-0.0408748
-0.0385318
-0.0360867
-0.0335665
-0.0310005
-0.0284178
-0.0258493
-0.0233222
-0.0208647
-0.0184978
-0.0162442
-0.0141145
-0.0121248
-0.0102718
-0.00856609
-0.00698776
-0.00554522
-0.00419759
-0.00295702
-0.00175435
-0.000614671
-0.0463048
-0.0476085
-0.0484517
-0.049044
-0.0495601
-0.0500481
-0.0504777
-0.0508039
-0.0509976
-0.051047
-0.0509468
-0.0506919
-0.0502801
-0.0497022
-0.0489497
-0.0480186
-0.0469086
-0.0456216
-0.0441615
-0.0425354
-0.0407536
-0.03883
-0.0367811
-0.0346267
-0.0323888
-0.030092
-0.0277607
-0.0254219
-0.0230993
-0.0208188
-0.0185995
-0.0164636
-0.0144214
-0.0124903
-0.0106682
-0.00896831
-0.00737229
-0.00589231
-0.00448913
-0.00317914
-0.00189455
-0.000664576
-0.0422833
-0.0434528
-0.0442379
-0.0448119
-0.0453201
-0.0458028
-0.0462346
-0.0465777
-0.0468071
-0.046912
-0.0468876
-0.0467293
-0.0464309
-0.0459887
-0.0453935
-0.0446394
-0.0437253
-0.0426519
-0.0414211
-0.0400377
-0.0385087
-0.0368447
-0.0350583
-0.0331654
-0.0311834
-0.0291327
-0.0270338
-0.0249098
-0.022781
-0.020671
-0.0185965
-0.0165792
-0.0146284
-0.0127623
-0.0109794
-0.00929498
-0.00769205
-0.00618583
-0.00473881
-0.00337103
-0.00201652
-0.000708001
-0.0386378
-0.0396878
-0.0404194
-0.0409745
-0.041473
-0.0419482
-0.042379
-0.0427336
-0.0429908
-0.0431408
-0.0431788
-0.0430998
-0.0428975
-0.0425718
-0.0421111
-0.0415094
-0.0407644
-0.0398757
-0.0388444
-0.0376729
-0.036366
-0.0349313
-0.0333782
-0.0317191
-0.0299679
-0.028141
-0.0262554
-0.0243306
-0.0223839
-0.0204363
-0.0185024
-0.0166024
-0.014745
-0.0129484
-0.0112113
-0.00955049
-0.00795011
-0.00642784
-0.00494792
-0.0035334
-0.0021206
-0.000745073
-0.0353432
-0.036287
-0.0369694
-0.0375056
-0.037993
-0.038459
-0.0388862
-0.0392481
-0.0395267
-0.0397133
-0.0398036
-0.0397932
-0.0396765
-0.0394433
-0.0390945
-0.0386224
-0.0380222
-0.0372927
-0.0364339
-0.0354468
-0.0343341
-0.033101
-0.0317542
-0.0303034
-0.0287589
-0.0271344
-0.0254432
-0.0237019
-0.0219248
-0.0201303
-0.0183311
-0.0165457
-0.0147817
-0.0130573
-0.0113708
-0.0097402
-0.00815047
-0.00662119
-0.00511836
-0.0036675
-0.00220744
-0.000776021
-0.0323767
-0.0332266
-0.0338641
-0.0343813
-0.0348569
-0.0353125
-0.0357341
-0.0360996
-0.0363939
-0.0366091
-0.0367408
-0.0367846
-0.0367347
-0.0365859
-0.036333
-0.0359711
-0.035495
-0.0349023
-0.0341923
-0.0333649
-0.0324212
-0.0313644
-0.0301992
-0.0289326
-0.0275725
-0.0261295
-0.0246143
-0.0230405
-0.0214199
-0.0197685
-0.0180967
-0.0164218
-0.0147498
-0.0130984
-0.0114658
-0.00987038
-0.00829798
-0.00676952
-0.0052527
-0.003775
-0.00227797
-0.000801179
-0.0297186
-0.0304855
-0.0310821
-0.031581
-0.0320441
-0.0324887
-0.0329032
-0.0332695
-0.0335748
-0.0338122
-0.0339774
-0.0340662
-0.0340732
-0.0339924
-0.0338194
-0.0335508
-0.0331806
-0.0327049
-0.0321223
-0.0314324
-0.030635
-0.0297316
-0.0287251
-0.0276206
-0.0264236
-0.0251425
-0.0237852
-0.0223632
-0.0208857
-0.0193665
-0.0178139
-0.0162437
-0.0146607
-0.0130818
-0.0115047
-0.00994805
-0.00839821
-0.00687709
-0.00535405
-0.00385803
-0.0023334
-0.000820971
-0.0273515
-0.0280455
-0.0286053
-0.0290865
-0.0295371
-0.0299704
-0.0303768
-0.0307418
-0.0310545
-0.0313088
-0.0315006
-0.0316256
-0.0316789
-0.031655
-0.03155
-0.0313588
-0.0310772
-0.0307007
-0.0302269
-0.0296547
-0.028983
-0.0282121
-0.0273435
-0.0263804
-0.0253267
-0.0241886
-0.022972
-0.0216861
-0.020338
-0.0189395
-0.0174972
-0.0160251
-0.0145267
-0.0130182
-0.0114968
-0.00998087
-0.00845737
-0.00694879
-0.00542603
-0.0039191
-0.00237519
-0.000835909
-0.0252608
-0.0258914
-0.0264182
-0.0268827
-0.027321
-0.027743
-0.028141
-0.028503
-0.0288203
-0.0290872
-0.0292998
-0.029454
-0.0295453
-0.0295685
-0.0295184
-0.0293914
-0.0291841
-0.0288915
-0.0285098
-0.0280374
-0.0274728
-0.0268155
-0.0260655
-0.0252248
-0.0242957
-0.0232828
-0.02219
-0.0210249
-0.0197925
-0.0185029
-0.017161
-0.0157793
-0.0143601
-0.0129186
-0.0114516
-0.009977
-0.0084822
-0.00698996
-0.00547268
-0.00396103
-0.00240498
-0.000846576
-0.023435
-0.0240108
-0.0245083
-0.0249573
-0.025384
-0.0257952
-0.0261845
-0.0265427
-0.0268623
-0.0271383
-0.0273669
-0.0275442
-0.0276658
-0.0277269
-0.0277226
-0.027649
-0.027503
-0.0272797
-0.026975
-0.0265865
-0.0261123
-0.0255512
-0.0249022
-0.0241662
-0.0233442
-0.0224394
-0.0214544
-0.0203949
-0.0192645
-0.0180716
-0.0168197
-0.0155199
-0.0141735
-0.0127944
-0.011379
-0.00994497
-0.00847978
-0.00700633
-0.00549835
-0.00398691
-0.0024246
-0.000853612
-0.0218649
-0.0223941
-0.0228662
-0.0233013
-0.0237171
-0.0241181
-0.0244992
-0.024853
-0.0251733
-0.0254557
-0.0256965
-0.0258918
-0.0260374
-0.0261291