/*--------------------------------*- C++ -*----------------------------------*\
  =========                 |
  \\      /  F ield         | OpenFOAM: The Open Source CFD Toolbox
   \\    /   O peration     | Website:  https://openfoam.org
    \\  /    A nd           | Version:  7
     \\/     M anipulation  |
\*---------------------------------------------------------------------------*/
FoamFile
{
    version     2.0;
    format      ascii;
    class       volScalarField;
    location    "20";
    object      p;
}
// * * * * * * * * * * * * * * * * * * * * * * * * * * * * * * * * * * * * * //

dimensions      [0 2 -2 0 0 0 0];

internalField   nonuniform List<scalar> 
6386
(
-0.282978
-0.288521
-0.290465
-0.290919
-0.290109
-0.288107
-0.285076
-0.281173
-0.276514
-0.271026
-0.283718
-0.289139
-0.291004
-0.291385
-0.290509
-0.288446
-0.285358
-0.281409
-0.276705
-0.271096
-0.285193
-0.29037
-0.292077
-0.292315
-0.291304
-0.28912
-0.285918
-0.281875
-0.277084
-0.271228
-0.287394
-0.292208
-0.293679
-0.293701
-0.292489
-0.29012
-0.286747
-0.282561
-0.27764
-0.271403
-0.290303
-0.294639
-0.295797
-0.295531
-0.294052
-0.291437
-0.287833
-0.283454
-0.278362
-0.271583
-0.293902
-0.297648
-0.298416
-0.297793
-0.295979
-0.293056
-0.289161
-0.284537
-0.279244
-0.271705
-0.298169
-0.301216
-0.301522
-0.30047
-0.298256
-0.294961
-0.290714
-0.285792
-0.28028
-0.271832
-0.303079
-0.305325
-0.305095
-0.303547
-0.300865
-0.297137
-0.292476
-0.287194
-0.281301
-0.272013
-0.308607
-0.309951
-0.309117
-0.307004
-0.303791
-0.299566
-0.29443
-0.288732
-0.282418
-0.272045
-0.314725
-0.315075
-0.313566
-0.310825
-0.307017
-0.302236
-0.296561
-0.290388
-0.283607
-0.271899
-0.32141
-0.320673
-0.318424
-0.314993
-0.31053
-0.305135
-0.298862
-0.292148
-0.284839
-0.271556
-0.328635
-0.32672
-0.323673
-0.319491
-0.314318
-0.308255
-0.301326
-0.294009
-0.286101
-0.270984
-0.336374
-0.333198
-0.329292
-0.324305
-0.318372
-0.311594
-0.303958
-0.295976
-0.287396
-0.270108
-0.344602
-0.340082
-0.335261
-0.329421
-0.322685
-0.315153
-0.306769
-0.298069
-0.288733
-0.268973
-0.353291
-0.347348
-0.341564
-0.334828
-0.327252
-0.318938
-0.30978
-0.300321
-0.290139
-0.267566
-0.354971
-0.348179
-0.340513
-0.332073
-0.32296
-0.313021
-0.302788
-0.291676
-0.265996
-0.362924
-0.355087
-0.346463
-0.337144
-0.327233
-0.316529
-0.30554
-0.293388
-0.264367
-0.371174
-0.362263
-0.352666
-0.342463
-0.331771
-0.320361
-0.308663
-0.29517
-0.262479
-0.369683
-0.359103
-0.348026
-0.336595
-0.324607
-0.312351
-0.297211
-0.26127
-0.377315
-0.365751
-0.353815
-0.34171
-0.329341
-0.316925
-0.301656
-0.270223
-0.372578
-0.359798
-0.347059
-0.334432
-0.322227
-0.310539
-0.30852
-0.365923
-0.352534
-0.33957
-0.327318
-0.316506
-0.321152
-0.372146
-0.358065
-0.344609
-0.331947
-0.320527
-0.325447
-0.363615
-0.349539
-0.336253
-0.323924
-0.327624
-0.354344
-0.340268
-0.326858
-0.328298
-0.343952
-0.329275
-0.327838
-0.331165
-0.326569
-0.32466
-0.332529
-0.324659
-0.331175
-0.326571
-0.343976
-0.329285
-0.327843
-0.354378
-0.340291
-0.326868
-0.328305
-0.363656
-0.34957
-0.336274
-0.323934
-0.327633
-0.372193
-0.358103
-0.344637
-0.331966
-0.320537
-0.325457
-0.365966
-0.352569
-0.339596
-0.327335
-0.316515
-0.321162
-0.372625
-0.359837
-0.34709
-0.334456
-0.322242
-0.310546
-0.308527
-0.377364
-0.365793
-0.353851
-0.341738
-0.329362
-0.316939
-0.301662
-0.270216
-0.369727
-0.359141
-0.348058
-0.336621
-0.324626
-0.312363
-0.297216
-0.26126
-0.371218
-0.362303
-0.352701
-0.342493
-0.331795
-0.320378
-0.308675
-0.295175
-0.26247
-0.362963
-0.355123
-0.346495
-0.337171
-0.327254
-0.316545
-0.30555
-0.293393
-0.26436
-0.362449
-0.355007
-0.348212
-0.340541
-0.332097
-0.32298
-0.313035
-0.302798
-0.291681
-0.265991
-0.353325
-0.34738
-0.341593
-0.334854
-0.327275
-0.318956
-0.309794
-0.30033
-0.290144
-0.267562
-0.344632
-0.34011
-0.335288
-0.329444
-0.322705
-0.315169
-0.306782
-0.298077
-0.288737
-0.26897
-0.336401
-0.333223
-0.329315
-0.324326
-0.31839
-0.311609
-0.303969
-0.295983
-0.2874
-0.270105
-0.328659
-0.326743
-0.323694
-0.319509
-0.314335
-0.308268
-0.301336
-0.294016
-0.286106
-0.270984
-0.321431
-0.320693
-0.318443
-0.315009
-0.310545
-0.305147
-0.298871
-0.292155
-0.284843
-0.271556
-0.314744
-0.315093
-0.313583
-0.31084
-0.30703
-0.302246
-0.29657
-0.290394
-0.283611
-0.2719
-0.308623
-0.309967
-0.309131
-0.307017
-0.303802
-0.299575
-0.294437
-0.288738
-0.282422
-0.272047
-0.303093
-0.305338
-0.305108
-0.303558
-0.300875
-0.297145
-0.292483
-0.287199
-0.281304
-0.272014
-0.298181
-0.301227
-0.301533
-0.30048
-0.298264
-0.294969
-0.29072
-0.285796
-0.280283
-0.271834
-0.293912
-0.297657
-0.298425
-0.297801
-0.295986
-0.293062
-0.289166
-0.28454
-0.279247
-0.271707
-0.290311
-0.294646
-0.295804
-0.295537
-0.294058
-0.291442
-0.287837
-0.283457
-0.278364
-0.271584
-0.2874
-0.292214
-0.293684
-0.293706
-0.292494
-0.290124
-0.28675
-0.282564
-0.277642
-0.271404
-0.285198
-0.290375
-0.292081
-0.292319
-0.291308
-0.289122
-0.28592
-0.281877
-0.277085
-0.271228
-0.28372
-0.289141
-0.291006
-0.291388
-0.29051
-0.288447
-0.285359
-0.28141
-0.276706
-0.271096
-0.282978
-0.288522
-0.290466
-0.29092
-0.29011
-0.288108
-0.285076
-0.281174
-0.276514
-0.271026
-0.266515
-0.26155
-0.255979
-0.249923
-0.243311
-0.236205
-0.228651
-0.220698
-0.212402
-0.203822
-0.195017
-0.186046
-0.176966
-0.167832
-0.158695
-0.1496
-0.140591
-0.131705
-0.122978
-0.114439
-0.106115
-0.098028
-0.090199
-0.0826439
-0.0753762
-0.0684065
-0.0617436
-0.0553911
-0.0493578
-0.0436326
-0.0382427
-0.0331262
-0.0284041
-0.023817
-0.019864
-0.015555
-0.0127519
-0.00795441
-0.00755065
4.07631e-06
-0.00573351
0.0110343
-0.266917
-0.261869
-0.256249
-0.250167
-0.243533
-0.236407
-0.228836
-0.22087
-0.212562
-0.203971
-0.195156
-0.186177
-0.17709
-0.167949
-0.158805
-0.149704
-0.140688
-0.131797
-0.123064
-0.114519
-0.106189
-0.0980967
-0.0902624
-0.0827021
-0.0754295
-0.068455
-0.0617877
-0.0554309
-0.0493936
-0.0436647
-0.0382713
-0.0331516
-0.0284266
-0.0238369
-0.0198811
-0.0155706
-0.0127638
-0.00796797
-0.00755603
-1.2429e-05
-0.00572676
0.0110006
-0.267718
-0.262501
-0.256786
-0.250653
-0.243972
-0.236806
-0.229203
-0.221209
-0.212877
-0.204265
-0.195433
-0.186437
-0.177335
-0.168181
-0.159024
-0.14991
-0.140883
-0.131979
-0.123234
-0.114678
-0.106337
-0.0982338
-0.0903888
-0.0828183
-0.0755359
-0.068552
-0.0618757
-0.0555105
-0.0494653
-0.0437289
-0.0383286
-0.0332025
-0.0284714
-0.0238766
-0.0199151
-0.0156019
-0.0127875
-0.00799503
-0.00756673
-4.53566e-05
-0.00571325
0.0109332
-0.268908
-0.263434
-0.257577
-0.251369
-0.24462
-0.237395
-0.229744
-0.221708
-0.213341
-0.2047
-0.195841
-0.186822
-0.177699
-0.168525
-0.159349
-0.150217
-0.141172
-0.132251
-0.123489
-0.114915
-0.106558
-0.0984384
-0.0905777
-0.0829919
-0.0756949
-0.068697
-0.0620074
-0.0556295
-0.0495724
-0.0438249
-0.0384143
-0.0332787
-0.0285385
-0.0239361
-0.019966
-0.0156487
-0.012823
-0.00803553
-0.00758272
-9.45827e-05
-0.0056931
0.0108327
-0.270501
-0.264652
-0.258607
-0.252305
-0.245462
-0.238161
-0.230446
-0.222358
-0.213946
-0.205267
-0.196375
-0.187327
-0.178177
-0.168977
-0.159777
-0.150621
-0.141553
-0.132609
-0.123825
-0.115229
-0.10685
-0.0987095
-0.090828
-0.0832222
-0.0759058
-0.0688893
-0.0621821
-0.0557875
-0.0497147
-0.0439525
-0.038528
-0.0333798
-0.0286276
-0.0240152
-0.0200336
-0.0157108
-0.01287
-0.00808933
-0.00760395
-0.000159921
-0.00566646
0.0106997
-0.272527
-0.266115
-0.259853
-0.253441
-0.246481
-0.239085
-0.231296
-0.223144
-0.21468
-0.205956
-0.197025
-0.187942
-0.178761
-0.169531
-0.160303
-0.151119
-0.142023
-0.133052
-0.124241
-0.115618
-0.107212
-0.0990454
-0.0911385
-0.0835078
-0.0761675
-0.0691282
-0.0623991
-0.0559838
-0.0498915
-0.044111
-0.0386694
-0.0335056
-0.0287384
-0.0241135
-0.0201177
-0.0157881
-0.0129285
-0.00815628
-0.00763036
-0.000241126
-0.00563356
0.0105351
-0.274736
-0.267843
-0.261292
-0.254749
-0.247661
-0.240153
-0.232275
-0.224051
-0.215528
-0.206754
-0.197781
-0.18866
-0.179444
-0.170182
-0.160921
-0.151706
-0.142579
-0.133576
-0.124733
-0.116079
-0.107642
-0.0994444
-0.0915074
-0.0838476
-0.076479
-0.0694125
-0.0626575
-0.0562176
-0.0501021
-0.0442998
-0.0388379
-0.0336554
-0.0288704
-0.0242307
-0.0202178
-0.0158803
-0.0129983
-0.00823618
-0.00766188
-0.000337894
-0.00559467
0.0103399
-0.277191
-0.269818
-0.262899
-0.25621
-0.248975
-0.24134
-0.233363
-0.225061
-0.216474
-0.207648
-0.198631
-0.189471
-0.180218
-0.17092
-0.161625
-0.152376
-0.143214
-0.134177
-0.125298
-0.116609
-0.108136
-0.0999043
-0.091933
-0.0842397
-0.0768387
-0.069741
-0.0629561
-0.0564879
-0.0503456
-0.0445183
-0.0390329
-0.0338288
-0.0290232
-0.0243664
-0.0203338
-0.0159871
-0.013079
-0.0083288
-0.00769843
-0.000449862
-0.00555007
0.0101154
-0.27997
-0.272327
-0.264688
-0.257801
-0.250399
-0.242622
-0.23454
-0.226155
-0.217503
-0.208624
-0.199562
-0.190362
-0.181072
-0.171739
-0.162409
-0.153123
-0.143925
-0.134849
-0.125932
-0.117205
-0.108693
-0.100422
-0.092413
-0.0846823
-0.077245
-0.0701122
-0.0632938
-0.0567937
-0.0506212
-0.0447655
-0.0392535
-0.0340252
-0.0291961
-0.02452
-0.020465
-0.0161082
-0.0131704
-0.00843386
-0.0077399
-0.000576616
-0.00550009
0.00986286
-0.282978
-0.274645
-0.26656
-0.259493
-0.251903
-0.243975
-0.235782
-0.227313
-0.218596
-0.209666
-0.200561
-0.191323
-0.181998
-0.17263
-0.163264
-0.153942
-0.144705
-0.13559
-0.126632
-0.117863
-0.109309
-0.100996
-0.0929451
-0.0851734
-0.077696
-0.0705246
-0.0636691
-0.0571336
-0.0509276
-0.0450405
-0.039499
-0.0342436
-0.0293886
-0.0246911
-0.0206111
-0.0162431
-0.0132722
-0.00855105
-0.00778618
-0.000717688
-0.00544509
0.0095839
-0.28626
-0.277191
-0.268538
-0.261252
-0.25346
-0.245372
-0.237066
-0.228514
-0.219736
-0.210758
-0.201614
-0.192343
-0.182985
-0.173584
-0.164183
-0.154824
-0.145548
-0.136393
-0.127392
-0.118579
-0.109981
-0.101623
-0.0935267
-0.0857106
-0.0781899
-0.0709764
-0.0640804
-0.0575063
-0.0512637
-0.0453422
-0.0397683
-0.0344835
-0.0295999
-0.0248791
-0.0207716
-0.0163914
-0.0133841
-0.00868002
-0.00783714
-0.000872561
-0.00538541
0.0092801
-0.289756
-0.27989
-0.270572
-0.263043
-0.255037
-0.246787
-0.238369
-0.229739
-0.220905
-0.211886
-0.20271
-0.193409
-0.184022
-0.174591
-0.165158
-0.155764
-0.14645
-0.137253
-0.128209
-0.11935
-0.110705
-0.102299
-0.094155
-0.0862915
-0.0787243
-0.0714656
-0.064526
-0.0579102
-0.0516281
-0.0456694
-0.0400605
-0.0347437
-0.0298291
-0.0250832
-0.0209457
-0.0165527
-0.0135055
-0.00882037
-0.00789267
-0.00104067
-0.00532145
0.00895318
-0.292861
-0.282599
-0.272614
-0.264826
-0.256602
-0.248192
-0.23967
-0.230969
-0.222088
-0.213036
-0.203834
-0.19451
-0.185101
-0.175644
-0.166182
-0.156755
-0.147403
-0.138165
-0.129077
-0.120171
-0.111477
-0.103021
-0.0948273
-0.0869137
-0.0792972
-0.0719903
-0.0650043
-0.058344
-0.0520195
-0.046021
-0.0403746
-0.0350235
-0.0300756
-0.0253027
-0.021133
-0.0167264
-0.0136362
-0.0089717
-0.00795264
-0.00122141
-0.00525358
0.00860489
-0.296429
-0.285359
-0.274621
-0.266564
-0.258123
-0.249564
-0.240947
-0.232187
-0.22327
-0.214195
-0.204976
-0.195638
-0.186212
-0.176735
-0.167247
-0.157789
-0.148402
-0.139124
-0.129991
-0.121038
-0.112294
-0.103787
-0.0955408
-0.0875748
-0.0799064
-0.0725488
-0.0655135
-0.058806
-0.0524366
-0.0463958
-0.0407093
-0.0353219
-0.0303384
-0.025537
-0.0213328
-0.016912
-0.0137756
-0.00913356
-0.00801691
-0.00141415
-0.00518216
0.00823698
-0.299821
-0.28802
-0.27655
-0.268212
-0.259563
-0.250874
-0.242181
-0.233376
-0.224436
-0.21535
-0.206125
-0.196781
-0.187345
-0.177854
-0.168346
-0.158861
-0.149441
-0.140124
-0.130948
-0.121947
-0.113152
-0.104592
-0.0962919
-0.0882714
-0.0805488
-0.073138
-0.0660512
-0.059294
-0.0528772
-0.0467918
-0.0410631
-0.0356373
-0.0306163
-0.025785
-0.0215441
-0.0171087
-0.0139232
-0.00930538
-0.00808517
-0.00161825
-0.00510735
0.00785116
-0.302914
-0.290444
-0.278326
-0.269709
-0.260876
-0.252093
-0.243347
-0.234517
-0.22557
-0.216486
-0.207266
-0.197924
-0.188487
-0.178988
-0.169464
-0.159957
-0.150507
-0.141153
-0.131935
-0.122887
-0.114042
-0.105429
-0.0970728
-0.0889965
-0.0812182
-0.0737526
-0.0666123
-0.0598036
-0.0533376
-0.0472058
-0.0414331
-0.0359675
-0.0309072
-0.0260448
-0.0217654
-0.0173153
-0.0140781
-0.00948637
-0.008157
-0.00183293
-0.00502933
0.00744916
-0.305345
-0.292388
-0.279888
-0.271018
-0.26204
-0.253209
-0.244441
-0.235606
-0.226668
-0.217598
-0.208393
-0.199063
-0.189632
-0.180131
-0.170598
-0.161073
-0.151596
-0.142209
-0.13295
-0.123856
-0.11496
-0.106293
-0.0978819
-0.0897488
-0.0819135
-0.0743914
-0.067196
-0.0603342
-0.0538172
-0.0476374
-0.041819
-0.0363121
-0.0312109
-0.0263165
-0.0219969
-0.0175317
-0.0142404
-0.00967614
-0.00823321
-0.00205691
-0.0049499
0.0070333
-0.306823
-0.293861
-0.281338
-0.272196
-0.263095
-0.254262
-0.245504
-0.236688
-0.227775
-0.218734
-0.209555
-0.200247
-0.190831
-0.181336
-0.1718
-0.162261
-0.15276
-0.143341
-0.134041
-0.1249
-0.115952
-0.107229
-0.0987579
-0.0905638
-0.082667
-0.0750839
-0.0678286
-0.060909
-0.0543365
-0.0481043
-0.0422361
-0.036684
-0.0315385
-0.0266088
-0.0222461
-0.0177634
-0.0144155
-0.00987688
-0.00831792
-0.00228879
-0.00487387
0.00660659
-0.30742
-0.294328
-0.28234
-0.273034
-0.263904
-0.255161
-0.246479
-0.237724
-0.228869
-0.219882
-0.210752
-0.201485
-0.192101
-0.182627
-0.173098
-0.163554
-0.154037
-0.144588
-0.13525
-0.126061
-0.117057
-0.108273
-0.0997373
-0.0914756
-0.0835102
-0.0758584
-0.0685356
-0.0615503
-0.0549147
-0.0486229
-0.042698
-0.0370945
-0.0318985
-0.0269286
-0.0225175
-0.0180141
-0.0146044
-0.0100912
-0.00840925
-0.00253213
-0.00479504
0.0061664
-0.300362
-0.289116
-0.281136
-0.272536
-0.263731
-0.255292
-0.246809
-0.238186
-0.22943
-0.220527
-0.211468
-0.202262
-0.192928
-0.183493
-0.173992
-0.164464
-0.154952
-0.145498
-0.136144
-0.12693
-0.117895
-0.109073
-0.100495
-0.0921873
-0.0841735
-0.0764723
-0.0690997
-0.0620655
-0.0553819
-0.0490448
-0.0430754
-0.0374332
-0.0321955
-0.0271984
-0.0227422
-0.0182353
-0.0147562
-0.0102992
-0.00846259
-0.00280141
-0.00465773
0.00569131
-0.263752
-0.274424
-0.278409
-0.271729
-0.263499
-0.25544
-0.247161
-0.238621
-0.229886
-0.220973
-0.211887
-0.202644
-0.193271
-0.183798
-0.174263
-0.164705
-0.155167
-0.145692
-0.136322
-0.127096
-0.118051
-0.109222
-0.100638
-0.0923263
-0.0843096
-0.0766064
-0.0692321
-0.0621969
-0.0555117
-0.049175
-0.0432026
-0.0375643
-0.0323177
-0.0273359
-0.0228511
-0.0183945
-0.0148278
-0.0105212
-0.00843227
-0.00318898
-0.0043611
0.0050072
-0.258448
-0.264054
-0.269896
-0.264545
-0.257215
-0.25002
-0.242471
-0.234504
-0.226243
-0.217744
-0.20903
-0.200128
-0.191068
-0.181884
-0.172616
-0.163304
-0.153991
-0.14472
-0.135532
-0.126469
-0.117569
-0.108866
-0.100392
-0.0921747
-0.0842383
-0.0766025
-0.0692841
-0.0622948
-0.0556459
-0.0493385
-0.0433862
-0.0377667
-0.0325245
-0.02756
-0.0230568
-0.018637
-0.0149997
-0.0108056
-0.0085053
-0.00360136
-0.00417356
0.00422854
-0.253288
-0.25584
-0.261103
-0.256611
-0.250017
-0.243511
-0.236616
-0.229224
-0.221469
-0.21343
-0.205141
-0.196635
-0.187948
-0.179115
-0.170176
-0.161172
-0.152145
-0.143138
-0.134192
-0.125349
-0.116647
-0.108122
-0.0998054
-0.0917271
-0.0839118
-0.076381
-0.0691525
-0.0622396
-0.0556544
-0.0494004
-0.04349
-0.0379066
-0.0326866
-0.0277496
-0.0232446
-0.0188615
-0.0151768
-0.0110747
-0.00860991
-0.00398136
-0.00405941
0.00348296
-0.248137
-0.248222
-0.252468
-0.248618
-0.242655
-0.236709
-0.230391
-0.223549
-0.216302
-0.208734
-0.200888
-0.192798
-0.184503
-0.176041
-0.16745
-0.158773
-0.150051
-0.141327
-0.132643
-0.124038
-0.115553
-0.107223
-0.099082
-0.091159
-0.0834806
-0.0760694
-0.0689443
-0.0621202
-0.0556101
-0.0494195
-0.0435602
-0.0380208
-0.0328305
-0.0279262
-0.0234265
-0.0190814
-0.0153581
-0.0113429
-0.00872791
-0.00436002
-0.00396721
0.00274469
-0.241986
-0.240434
-0.243458
-0.240041
-0.234662
-0.229239
-0.223479
-0.217202
-0.210495
-0.20344
-0.196081
-0.188452
-0.180594
-0.172544
-0.164342
-0.15603
-0.147649
-0.139242
-0.130849
-0.122513
-0.114272
-0.106162
-0.098219
-0.0904722
-0.0829495
-0.0756747
-0.0686682
-0.0619463
-0.0555229
-0.049406
-0.0436067
-0.0381186
-0.0329649
-0.0280976
-0.0236093
-0.0193025
-0.0155481
-0.0116137
-0.00886202
-0.00473793
-0.0038982
0.00201873
-0.234255
-0.231923
-0.233751
-0.230662
-0.22587
-0.220977
-0.215777
-0.210083
-0.20395
-0.197449
-0.190621
-0.183502
-0.176127
-0.168536
-0.160769
-0.152865
-0.144867
-0.136815
-0.128753
-0.120719
-0.112754
-0.104896
-0.0971778
-0.0896327
-0.0822889
-0.0751716
-0.0683025
-0.0616994
-0.0553777
-0.0493471
-0.0436192
-0.0381915
-0.0330831
-0.0282583
-0.0237887
-0.0195214
-0.0157448
-0.0118843
-0.00901219
-0.00511021
-0.00385726
0.00131646
-0.224845
-0.222388
-0.223206
-0.22043
-0.216259
-0.211927
-0.207299
-0.202206
-0.196676
-0.190764
-0.184507
-0.177937
-0.171089
-0.164
-0.156709
-0.149256
-0.14168
-0.134023
-0.126326
-0.11863
-0.110975
-0.103398
-0.0959353
-0.0886189
-0.0814788
-0.0745415
-0.0678302
-0.0613643
-0.0551606
-0.0492308
-0.0435871
-0.0382304
-0.0331771
-0.0284017
-0.0239591
-0.0197333
-0.0159438
-0.0121516
-0.00917545
-0.00547337
-0.00384433
0.000647948
-0.213793
-0.211709
-0.211786
-0.209358
-0.205846
-0.202117
-0.198082
-0.193607
-0.188702
-0.183408
-0.177754
-0.171768
-0.165483
-0.158934
-0.152158
-0.145191
-0.138075
-0.130849
-0.123554
-0.116231
-0.108918
-0.101654
-0.0944749
-0.0874145
-0.0805036
-0.0737698
-0.0672377
-0.0609285
-0.0548602
-0.0490466
-0.0435008
-0.0382268
-0.0332393
-0.0285214
-0.0241144
-0.0199336
-0.0161406
-0.0124119
-0.00934802
-0.00582427
-0.00385741
2.22415e-05
-0.201303
-0.199922
-0.199554
-0.197529
-0.194707
-0.191615
-0.188194
-0.184351
-0.180087
-0.175428
-0.1704
-0.165025
-0.159331
-0.153351
-0.14712
-0.140674
-0.13405
-0.127288
-0.120428
-0.113508
-0.106569
-0.0996482
-0.0927821
-0.0860051
-0.0793489
-0.0728424
-0.0665117
-0.0603792
-0.0544647
-0.0487837
-0.0433505
-0.038172
-0.0332619
-0.0286103
-0.0242483
-0.0201168
-0.0163298
-0.0126615
-0.0095256
-0.00615933
-0.00389377
-0.000552216
-0.18771
-0.187198
-0.186663
-0.185093
-0.182972
-0.180538
-0.177744
-0.174538
-0.170918
-0.166903
-0.162509
-0.157759
-0.152678
-0.147284
-0.141621
-0.13572
-0.129615
-0.123345
-0.116947
-0.11046
-0.103922
-0.0973724
-0.0908463
-0.0843789
-0.0780024
-0.071747
-0.0656397
-0.0597045
-0.0539625
-0.0484312
-0.043126
-0.0380567
-0.0332361
-0.0286609
-0.0243537
-0.0202771
-0.0165058
-0.0128958
-0.00970333
-0.00647456
-0.00394992
-0.00106798
-0.173419
-0.173805
-0.173332
-0.172253
-0.170818
-0.169039
-0.16687
-0.164293
-0.16131
-0.157932
-0.154172
-0.150045
-0.145571
-0.140785
-0.135704
-0.130363
-0.124795
-0.119036
-0.113123
-0.107091
-0.10098
-0.0948248
-0.088663
-0.0825291
-0.0764559
-0.070474
-0.0646115
-0.0588938
-0.0533432
-0.0479789
-0.0428176
-0.0378714
-0.0331533
-0.028665
-0.0244232
-0.020408
-0.0166622
-0.0131098
-0.00987584
-0.00676574
-0.00402156
-0.00151909
-0.158851
-0.160059
-0.159809
-0.159233
-0.158443
-0.157292
-0.155729
-0.15376
-0.151393
-0.148635
-0.145492
-0.14198
-0.138117
-0.133924
-0.129426
-0.124651
-0.119629
-0.114393
-0.108978
-0.103419
-0.0977514
-0.0920113
-0.0862343
-0.0804547
-0.0747054
-0.0690176
-0.06342
-0.0579389
-0.052598
-0.0474177
-0.0424161
-0.0376074
-0.0330049
-0.0286149
-0.0244493
-0.0205027
-0.0167926
-0.0132981
-0.0100375
-0.00702856
-0.00410369
-0.00190154
-0.144382
-0.146277
-0.146343
-0.146254
-0.146048
-0.145478
-0.144485
-0.143089
-0.141305
-0.139135
-0.136585
-0.133665
-0.130391
-0.126781
-0.122857
-0.118642
-0.114166
-0.109457
-0.104547
-0.0994695
-0.0942576
-0.0889461
-0.0835692
-0.0781605
-0.0727526
-0.0673767
-0.0620617
-0.0568348
-0.0517205
-0.0467404
-0.0419139
-0.0372568
-0.0327832
-0.0285029
-0.0244247
-0.0205545
-0.0168904
-0.0134553
-0.0101824
-0.00725888
-0.00419098
-0.00221337
-0.13032
-0.13274
-0.133157
-0.133514
-0.133817
-0.133766
-0.133292
-0.132424
-0.131178
-0.129557
-0.127562
-0.125203
-0.122491
-0.119441
-0.116072
-0.112405
-0.108465
-0.104277
-0.099871
-0.0952764
-0.0905254
-0.0856501
-0.0806833
-0.0756574
-0.0706042
-0.0655544
-0.0605372
-0.0555797
-0.0507072
-0.0459423
-0.0413052
-0.0368134
-0.0324814
-0.0283223
-0.0243426
-0.0205572
-0.0169494
-0.013576
-0.0103049
-0.00745288
-0.00427798
-0.00245483
-0.116884
-0.119673
-0.120428
-0.121175
-0.121907
-0.122303
-0.122288
-0.121893
-0.121135
-0.120015
-0.118533
-0.116695
-0.114509
-0.11199
-0.10915
-0.106009
-0.102587
-0.0989073
-0.0949958
-0.0908795
-0.0865876
-0.0821502
-0.0775979
-0.0729616
-0.068272
-0.0635588
-0.0588508
-0.0541753
-0.0495576
-0.0450209
-0.0405863
-0.0362723
-0.0320943
-0.0280674
-0.0241971
-0.0205051
-0.0169638
-0.0136553
-0.0103998
-0.00760735
-0.0043594
-0.00262846
-0.104214
-0.107231
-0.108286
-0.109358
-0.110438
-0.111207
-0.111586
-0.111605
-0.111281
-0.11061
-0.109593
-0.108232
-0.106533
-0.104507
-0.102164
-0.099521
-0.0965938
-0.0934029
-0.0899706
-0.0863214
-0.082481
-0.0784772
-0.0743385
-0.0700937
-0.0657719
-0.0614017
-0.0570111
-0.0526269
-0.0482743
-0.0439769
-0.039756
-0.0356312
-0.0316181
-0.0277341
-0.0239836
-0.0203933
-0.0169287
-0.013689
-0.0104622
-0.00771988
-0.00443032
-0.00273892
-0.0923773
-0.0955101
-0.0968117
-0.0981415
-0.0994946
-0.100566
-0.101275
-0.101648
-0.1017
-0.101426
-0.100823
-0.0998916
-0.0986365
-0.0970639
-0.0951829
-0.0930049
-0.0905443
-0.0878177
-0.0848442
-0.0816451
-0.0782436
-0.0746643
-0.0709332
-0.067077
-0.0631229
-0.0590982
-0.0550294
-0.0509427
-0.0468628
-0.0428132
-0.0388153
-0.0348893
-0.0310512
-0.0273195
-0.0236985
-0.0202183
-0.01684
-0.0136736
-0.0104882
-0.00778902
-0.00448641
-0.00279268
-0.0813933
-0.0845559
-0.0860471
-0.0875727
-0.0891312
-0.090439
-0.0914175
-0.0920867
-0.0924582
-0.0925274
-0.0922886
-0.0917401
-0.0908837
-0.0897233
-0.0882651
-0.0865175
-0.0844918
-0.0822015
-0.0796625
-0.076893
-0.0739133
-0.0707449
-0.0674113
-0.0639368
-0.0603465
-0.0566657
-0.0529197
-0.0491335
-0.0453311
-0.0415354
-0.0377677
-0.0340483
-0.0303935
-0.0268227
-0.0233401
-0.0199777
-0.0166949
-0.0136067
-0.0104747
-0.00781437
-0.00452417
-0.00279759
-0.0712461
-0.0743764
-0.0760042
-0.0776701
-0.079376
-0.0808624
-0.0820537
-0.0829646
-0.083604
-0.0839655
-0.0840418
-0.0838292
-0.083327
-0.0825367
-0.0814618
-0.0801081
-0.0784838
-0.0765995
-0.074468
-0.0721045
-0.0695261
-0.0667519
-0.0638021
-0.0606988
-0.0574647
-0.0541232
-0.0506978
-0.0472121
-0.0436891
-0.0401509
-0.0366184
-0.0331117
-0.0296471
-0.0262443
-0.0229078
-0.0196705
-0.0164918
-0.013487
-0.0104197
-0.00779652
-0.004541
-0.00276226
-0.0619
-0.0649555
-0.0666737
-0.0684329
-0.0702374
-0.0718529
-0.0732072
-0.0743107
-0.0751694
-0.0757757
-0.0761208
-0.076199
-0.0760078
-0.0755463
-0.0748155
-0.0738187
-0.0725614
-0.0710514
-0.0692987
-0.0673155
-0.0651159
-0.062716
-0.0601339
-0.0573884
-0.0545001
-0.0514902
-0.0483804
-0.0451926
-0.0419484
-0.0386689
-0.0353744
-0.0320845
-0.0288153
-0.0255864
-0.0224028
-0.019297
-0.0162302
-0.0133143
-0.0103219
-0.00773703
-0.00453524
-0.00269555
-0.0533099
-0.0562625
-0.0580329
-0.0598469
-0.0617103
-0.0634131
-0.0648874
-0.0661401
-0.0671745
-0.0679821
-0.0685529
-0.0688798
-0.0689583
-0.0687856
-0.0683606
-0.0676843
-0.0667597
-0.065592
-0.0641884
-0.0625584
-0.0607134
-0.0586667
-0.0564335
-0.0540303
-0.051475
-0.0487867
-0.0459849
-0.0430898
-0.0401215
-0.0370999
-0.0340442
-0.0309733
-0.0279031
-0.0248526
-0.0218273
-0.0188587
-0.0159108
-0.0130894
-0.0101815
-0.00763823
-0.00450619
-0.00260592
-0.0454269
-0.0482593
-0.0500516
-0.0518894
-0.05378
-0.0555358
-0.0570938
-0.0584579
-0.0596295
-0.0605994
-0.0613567
-0.0618932
-0.0622029
-0.0622812
-0.0621253
-0.0617341
-0.0611083
-0.0602509
-0.0591667
-0.0578623
-0.0563467
-0.0546306
-0.0527263
-0.050648
-0.048411
-0.0460321
-0.0435288
-0.0409192
-0.0382218
-0.0354551
-0.0326371
-0.0297859
-0.0269166
-0.0240477
-0.021185
-0.0183585
-0.0155356
-0.0128143
-0.00999916
-0.00750304
-0.00445402
-0.00250096
-0.0382024
-0.0409046
-0.0426955
-0.0445333
-0.046426
-0.0482069
-0.0498183
-0.0512618
-0.0525372
-0.0536349
-0.0545435
-0.055254
-0.0557592
-0.0560532
-0.0561317
-0.0559917
-0.0556322
-0.0550539
-0.0542594
-0.053253
-0.0520412
-0.0506322
-0.0490358
-0.0472637
-0.0453289
-0.0432457
-0.0410294
-0.0386964
-0.0362631
-0.0337467
-0.0311637
-0.028531
-0.0258631
-0.0231776
-0.0204806
-0.0178
-0.0151073
-0.0124916
-0.00977676
-0.00733478
-0.0043796
-0.00238706
-0.03159
-0.0341573
-0.0359292
-0.0377486
-0.039624
-0.041408
-0.0430481
-0.044544
-0.0458946
-0.04709
-0.0481188
-0.0489714
-0.0496397
-0.0501169
-0.0503973
-0.0504767
-0.0503522
-0.0500229
-0.0494891
-0.0487534
-0.0478198
-0.0466941
-0.045384
-0.0438985
-0.0422486
-0.0404461
-0.0385042
-0.0364372
-0.0342597
-0.0319872
-0.0296348
-0.0272181
-0.0247507
-0.0222491
-0.0197196
-0.017188
-0.0146298
-0.0121248
-0.0095168
-0.007137
-0.00428441
-0.00226919
-0.025546
-0.0279774
-0.0297173
-0.0315047
-0.0333482
-0.0351181
-0.0367668
-0.0382929
-0.0396945
-0.0409619
-0.0420837
-0.04305
-0.0438523
-0.0444831
-0.0449356
-0.0452045
-0.0452857
-0.0451765
-0.0448758
-0.044384
-0.0437032
-0.0428372
-0.0417913
-0.0405725
-0.0391893
-0.0376515
-0.0359702
-0.0341574
-0.0322261
-0.0301898
-0.0280622
-0.0258575
-0.0235883
-0.0212699
-0.0189088
-0.0165282
-0.0141077
-0.0117182
-0.00922246
-0.00691332
-0.00417038
-0.00215094
-0.0200298
-0.0223268
-0.0240256
-0.0257712
-0.027572
-0.0293145
-0.030956
-0.0324943
-0.0339269
-0.0352443
-0.0364356
-0.0374909
-0.0384014
-0.039159
-0.0397565
-0.0401875
-0.0404469
-0.0405308
-0.0404365
-0.0401628
-0.0397102
-0.0390804
-0.0382769
-0.0373044
-0.0361694
-0.0348796
-0.0334441
-0.0318727
-0.0301767
-0.0283678
-0.026458
-0.0244601
-0.0223856
-0.0202485
-0.0180552
-0.0158268
-0.0135462
-0.0112763
-0.00889748
-0.0066674
-0.00403969
-0.00203457
-0.0150038
-0.0171698
-0.0188214
-0.0205183
-0.0222689
-0.0239741
-0.0255961
-0.0271321
-0.0285792
-0.0299285
-0.0311694
-0.0322923
-0.0332882
-0.034149
-0.0348669
-0.035435
-0.0358474
-0.036099
-0.0361861
-0.0361061
-0.0358579
-0.0354415
-0.0348586
-0.0341122
-0.0332067
-0.0321477
-0.0309425
-0.029599
-0.0281264
-0.0265349
-0.0248347
-0.0230373
-0.0211528
-0.019194
-0.0171669
-0.0150907
-0.0129515
-0.0108043
-0.00854607
-0.00640286
-0.00389475
-0.00192133
-0.0104335
-0.0124732
-0.0140737
-0.0157176
-0.0174128
-0.0190738
-0.020667
-0.0221894
-0.0236379
-0.025004
-0.0262778
-0.0274499
-0.0285117
-0.0294548
-0.0302713
-0.030954
-0.0314962
-0.0318923
-0.0321374
-0.032228
-0.0321615
-0.0319365
-0.0315532
-0.0310128
-0.0303179
-0.0294724
-0.0284816
-0.0273517
-0.0260901
-0.024705
-0.0232054
-0.0216009
-0.0199007
-0.0181159
-0.0162526
-0.0143277
-0.0123299
-0.0103079
-0.00817281
-0.00612331
-0.00373804
-0.00181171
-0.00628684
-0.0082061
-0.00975344
-0.011342
-0.0129789
-0.014591
-0.0161487
-0.0176489
-0.0190883
-0.020459
-0.0217519
-0.022958
-0.0240688
-0.0250761
-0.0259721
-0.0267492
-0.0274005
-0.0279197
-0.0283014
-0.0285409
-0.0286346
-0.0285801
-0.0283759
-0.028022
-0.0275192
-0.0268698
-0.0260774
-0.0251464
-0.0240825
-0.0228924
-0.0215832
-0.0201633
-0.0186405
-0.0170247
-0.0153214
-0.0135456
-0.0116886
-0.00979304
-0.00778257
-0.00583235
-0.00357208
-0.00170578
-0.0025348
-0.00434005
-0.00583373
-0.007366
-0.00894352
-0.0105039
-0.0120216
-0.0134932
-0.0149156
-0.0162814
-0.0175822
-0.0188094
-0.0199551
-0.0210112
-0.02197
-0.0228238
-0.0235656
-0.0241887
-0.0246872
-0.0250556
-0.0252897
-0.0253857
-0.0253413
-0.0251548
-0.024826
-0.0243555
-0.0237453
-0.0229983
-0.0221185
-0.0211111
-0.0199817
-0.0187371
-0.017384
-0.0159309
-0.0143828
-0.0127532
-0.0110349
-0.00926591
-0.00738052
-0.00553363
-0.00339941
-0.0016034
0.000849191
-0.000849068
-0.00228969
-0.00376615
-0.00528441
-0.00679197
-0.00826682
-0.00970561
-0.0111051
-0.0124587
-0.0137584
-0.0149965
-0.0161652
-0.017257
-0.0182642
-0.0191794
-0.0199953
-0.0207052
-0.0213026
-0.0217818
-0.0221376
-0.0223657
-0.0224625
-0.0224255
-0.022253
-0.0219445
-0.0215005
-0.0209225
-0.0202129
-0.0193755
-0.0184144
-0.0173351
-0.0161431
-0.0148456
-0.013447
-0.0119593
-0.0103768
-0.00873311
-0.00697201
-0.00523091
-0.00322263
-0.00150449
0.0038891
0.00229044
0.000901349
-0.000520757
-0.0019811
-0.00343603
-0.0048668
-0.0062701
-0.00764273
-0.00897861
-0.0102705
-0.0115112
-0.0126935
-0.01381
-0.0148536
-0.0158168
-0.0166926
-0.017474
-0.0181544
-0.0187278
-0.0191884
-0.0195312
-0.019752
-0.0198473
-0.0198143
-0.0196514
-0.0193578
-0.0189337
-0.0183804
-0.0176999
-0.0168953
-0.0159706
-0.0149303
-0.0137802
-0.0125244
-0.0111731
-0.00972221
-0.00820147
-0.00656261
-0.00492807
-0.00304432
-0.00140909
0.00660636
0.00509959
0.00375979
0.00238974
0.000985028
-0.00041858
-0.00180529
-0.00317187
-0.00451518
-0.00582966
-0.00710874
-0.00834573
-0.00953388
-0.0106663
-0.0117361
-0.0127361
-0.0136594
-0.0144991
-0.0152484
-0.0159011
-0.0164511
-0.0168929
-0.0172216
-0.0174329
-0.0175234
-0.0174902
-0.0173317
-0.0170467
-0.0166353
-0.0160985
-0.0154381
-0.0146568
-0.013758
-0.0127465
-0.0116256
-0.0104045
-0.00907971
-0.00767808
-0.00615807
-0.00462915
-0.00286717
-0.00131749
0.00901979
0.00759701
0.00630363
0.00498267
0.00363053
0.00227601
0.000932236
-0.000397629
-0.00171052
-0.00300135
-0.00426417
-0.00549282
-0.00668102
-0.00782232
-0.00891007
-0.00993751
-0.0108978
-0.0117843
-0.0125901
-0.0133088
-0.0139343
-0.0144606
-0.0148824
-0.0151947
-0.0153933
-0.0154748
-0.0154363
-0.0152758
-0.0149924
-0.0145859
-0.014057
-0.0134073
-0.0126392
-0.0117564
-0.0107618
-0.00966313
-0.00845797
-0.00717025
-0.00576432
-0.00433836
-0.0026939
-0.00123018
0.0111456
0.00979872
0.0085484
0.00727298
0.00596967
0.00466121
0.00335835
0.00206414
0.000781604
-0.000484638
-0.00172916
-0.00294632
-0.00413027
-0.00527498
-0.00637414
-0.0074213
-0.00840989
-0.00933326
-0.0101848
-0.010958
-0.0116465
-0.0122442
-0.0127453
-0.0131445
-0.013437
-0.0136186
-0.0136857
-0.0136355
-0.0134661
-0.0131764
-0.012766
-0.0122356
-0.0115867
-0.0108221
-0.00994403
-0.00895928
-0.00786592
-0.00668553
-0.00538746
-0.00406007
-0.00252735
-0.00114787
0.0129972
0.011718
0.0105069
0.00927298
0.00801422
0.0067481
0.00548331
0.0042228
0.00296951
0.00172769
0.000502274
-0.000701552
-0.00187837
-0.0030225