/*--------------------------------*- C++ -*----------------------------------*\
  =========                 |
  \\      /  F ield         | OpenFOAM: The Open Source CFD Toolbox
   \\    /   O peration     | Website:  https://openfoam.org
    \\  /    A nd           | Version:  7
     \\/     M anipulation  |
\*---------------------------------------------------------------------------*/
FoamFile
{
    version     2.0;
    format      ascii;
    class       surfaceScalarField;
    location    "20";
    object      phi;
}
// * * * * * * * * * * * * * * * * * * * * * * * * * * * * * * * * * * * * * //

dimensions      [0 3 -1 0 0 0 0];

internalField   nonuniform List<scalar> 
12578
(
-4.20916e-06
4.19863e-06
1.0529e-08
-1.45039e-05
1.02652e-05
2.95865e-08
-2.93967e-05
1.4845e-05
4.78431e-08
-4.74466e-05
1.7985e-05
6.49056e-08
-6.72976e-05
1.97704e-05
8.05345e-08
-8.77422e-05
2.035e-05
9.46766e-08
-0.000107803
1.99529e-05
1.07486e-07
-0.000126844
1.89223e-05
1.19318e-07
-0.00014463
1.76552e-05
1.30659e-07
1.6649e-05
1.42087e-07
-0.000161421
-4.13427e-06
8.3329e-06
-1.42127e-05
2.03436e-05
-2.87361e-05
2.93684e-05
-4.62462e-05
3.54951e-05
-6.53624e-05
3.88866e-05
-8.48455e-05
3.9833e-05
-0.000103678
3.87855e-05
-0.000121183
3.6427e-05
-0.000137085
3.35579e-05
3.11714e-05
-0.000151608
-3.98558e-06
1.23185e-05
-1.36337e-05
2.99917e-05
-2.74222e-05
4.31569e-05
-4.38577e-05
5.19305e-05
-6.15111e-05
5.654e-05
-7.90792e-05
5.74012e-05
-9.54659e-05
5.51721e-05
-0.000109907
5.08685e-05
-0.000122055
4.57052e-05
4.11681e-05
-0.000132051
-3.76523e-06
1.60837e-05
-1.27741e-05
3.90006e-05
-2.54695e-05
5.58523e-05
-4.03058e-05
6.67668e-05
-5.57818e-05
7.20161e-05
-7.04991e-05
7.21185e-05
-8.32428e-05
6.79158e-05
-9.31186e-05
6.07443e-05
-9.96631e-05
5.22497e-05
4.44087e-05
-0.000102904
-3.47618e-06
1.95599e-05
-1.16436e-05
4.7168e-05
-2.28982e-05
6.71069e-05
-3.56254e-05
7.94941e-05
-4.82291e-05
8.46198e-05
-5.91846e-05
8.30739e-05
-6.71189e-05
7.58501e-05
-7.09606e-05
6.4586e-05
-7.00973e-05
5.13864e-05
3.86987e-05
-6.43873e-05
-3.12201e-06
2.26819e-05
-1.02542e-05
5.43002e-05
-1.97331e-05
7.65858e-05
-2.98594e-05
8.96203e-05
-3.89201e-05
9.36805e-05
-4.5235e-05
8.93887e-05
-4.72329e-05
7.78481e-05
-4.36099e-05
6.0963e-05
-3.35741e-05
4.13505e-05
2.21394e-05
-1.70148e-05
-2.7066e-06
2.53885e-05
-8.6188e-06
6.02124e-05
-1.60016e-05
8.39687e-05
-2.30554e-05
9.66741e-05
-2.79306e-05
9.85557e-05
-2.8764e-05
9.02221e-05
-2.37493e-05
7.28335e-05
-1.12883e-05
4.85019e-05
9.89726e-06
2.0165e-05
-7.37248e-06
3.94092e-05
-2.23382e-06
2.76223e-05
-6.75061e-06
6.47291e-05
-1.17315e-05
8.89495e-05
-1.52623e-05
0.000100205
-1.53396e-05
9.8633e-05
-9.89274e-06
8.47753e-05
3.15565e-06
5.97851e-05
2.57187e-05
2.59389e-05
5.92232e-05
-1.33395e-05
-5.23529e-05
0.000104204
-1.70718e-06
2.93295e-05
-4.66185e-06
6.76838e-05
-6.94897e-06
9.12366e-05
-6.52739e-06
9.97834e-05
-1.22373e-06
9.33293e-05
1.12592e-05
7.22924e-05
3.33021e-05
3.77422e-05
6.71986e-05
-7.95763e-06
0.000114798
-6.09387e-05
-0.000114458
0.000176903
-1.12956e-06
3.04591e-05
-2.36303e-06
6.89173e-05
-1.67708e-06
9.05507e-05
3.10757e-06
9.49987e-05
1.43465e-05
8.20904e-05
3.45802e-05
5.20587e-05
6.65174e-05
5.80503e-06
0.000112884
-5.43247e-05
0.000176029
-0.000124083
-0.000195531
0.000257102
-5.03157e-07
3.09622e-05
1.39839e-07
6.82743e-05
4.06557e-06
8.66249e-05
1.3608e-05
8.54563e-05
3.1313e-05
6.43854e-05
5.99733e-05
2.33984e-05
0.000102641
-3.68629e-05
0.000162517
-0.0001142
0.000242538
-0.000204104
-0.000297321
0.000344327
1.7191e-07
3.07903e-05
2.83529e-06
6.56109e-05
1.02651e-05
7.91951e-05
2.49483e-05
7.07731e-05
4.96308e-05
3.97029e-05
8.73612e-05
-1.4332e-05
0.000141538
-9.10398e-05
0.000215857
-0.00018852
0.00031393
-0.000302177
-0.000421475
0.000438085
8.92943e-07
2.98974e-05
5.72626e-06
6.07776e-05
1.69131e-05
6.80083e-05
3.71105e-05
5.05756e-05
6.92691e-05
7.54431e-06
0.000116691
-6.17536e-05
0.000183107
-0.000157456
0.000272709
-0.000278121
0.000389862
-0.000419331
-0.000569176
0.000537563
1.66224e-06
2.82351e-05
8.80827e-06
5.36316e-05
2.40023e-05
5.28143e-05
5.00812e-05
2.44967e-05
9.02073e-05
-3.25817e-05
0.00014793
-0.000119476
0.000227287
-0.000236812
0.000332931
-0.000383766
0.000470028
-0.000556428
-0.000741843
0.000642695
2.47938e-06
1.2079e-05
4.4032e-05
3.15246e-05
3.33686e-05
6.38456e-05
-7.82436e-06
0.000112426
-8.11619e-05
0.000181059
-0.000188109
0.000274049
-0.000329803
0.000396439
-0.000506155
0.000554155
-0.000714143
-0.000940276
0.000752588
1.55334e-05
3.18425e-05
3.94658e-05
9.43619e-06
7.8378e-05
-4.67365e-05
0.000135891
-0.000138675
0.000216048
-0.000268266
0.000323387
-0.000437142
0.000463224
-0.000645993
0.000642062
-0.00089298
-0.00116481
0.000866594
1.91614e-05
1.69355e-05
4.77998e-05
-1.92022e-05
9.36301e-05
-9.25669e-05
0.000160535
-0.00020558
0.00025283
-0.00036056
0.000375274
-0.000559586
0.000533344
-0.000804063
0.000733749
-0.00109339
-0.00141528
0.000984217
2.29457e-05
5.64827e-05
-5.27392e-05
0.000109518
-0.000145603
0.000186227
-0.000282289
0.000291247
-0.00046558
0.000429621
-0.00069796
0.000606928
-0.000981371
0.000829425
-0.00131588
-0.00169122
0.00110536
6.54492e-05
-9.13279e-05
0.000125912
-0.000206065
0.000212743
-0.000369121
0.00033099
-0.000583827
0.000486192
-0.000853161
0.0006843
-0.00117948
0.00093008
-0.00156166
-0.00199254
0.0012314
7.46105e-05
0.000142623
-0.000274077
0.000239732
-0.00046623
0.000371471
-0.000715566
0.000544219
-0.00102591
0.000765451
-0.00140071
0.00104085
-0.00183706
-0.00231642
0.00136472
0.00015942
0.000266712
-0.000573523
0.000411703
-0.000860557
0.000601617
-0.00121582
0.000846111
-0.00164521
0.00116454
-0.00215549
-0.00277729
0.00162541
0.00029316
-0.000690627
0.000450519
-0.00101792
0.000655506
-0.00142081
0.000917724
-0.00190742
0.00125272
-0.00249049
-0.0032046
0.00168004
0.000318664
0.000487154
-0.0011864
0.000704542
-0.0016382
0.000978511
-0.00218139
0.00131791
-0.00282988
-0.0036132
0.00172651
0.000521288
0.00074871
-0.00186562
0.00103055
-0.00246323
0.00137035
-0.00316968
-0.0040072
0.00176435
0.000788325
0.00107547
-0.00275038
0.00141403
-0.00350825
-0.00438927
0.00179611
0.00111414
0.00145033
-0.00384443
-0.00476099
0.00182205
0.00147958
-0.00512271
0.0018413
0.00185277
0.00150239
0.00417889
0.00512476
0.00185373
0.00148036
0.00384605
0.00476289
0.00184223
0.00111473
0.00275155
0.00145107
0.00350971
0.00439102
0.00182294
0.000788725
0.0018664
0.00107601
0.00246426
0.00141473
0.00317099
0.00400879
0.00179696
0.00052154
0.00118687
0.000749075
0.00163886
0.00103105
0.00218229
0.001371
0.00283104
0.00361462
0.00176517
0.000318809
0.000690861
0.00048738
0.0010183
0.000704873
0.00142137
0.00097897
0.00190819
0.00131852
0.00249149
0.00320586
0.00172728
0.000293288
0.000573703
0.00045072
0.000860862
0.000655804
0.00121629
0.000918143
0.00164586
0.00125329
0.00215635
0.00277836
0.00168078
0.000159483
0.000274132
0.000266824
0.000466362
0.000411881
0.000715805
0.000601883
0.00102628
0.000846489
0.00140125
0.00116506
0.00183778
0.00231729
0.00162613
7.46369e-05
9.13171e-05
0.000142678
0.000206091
0.000239829
0.00036921
0.000371627
0.000584007
0.000544455
0.000853457
0.00076579
0.00117991
0.00104131
0.00156225
0.00199327
0.00136533
6.54714e-05
5.27141e-05
0.000125958
0.000145604
0.000212827
0.000282341
0.000331128
0.000465706
0.0004864
0.000698184
0.0006846
0.000981715
0.000930494
0.00131636
0.00169182
0.00123195
2.29523e-05
-1.69716e-05
5.65014e-05
1.9165e-05
0.000109558
9.25477e-05
0.0001863
0.0002056
0.000291366
0.00036064
0.000429804
0.000559747
0.000607193
0.000804325
0.000829793
0.00109376
0.00141576
0.00110585
1.91667e-05
-3.18831e-05
4.78153e-05
-9.48359e-06
9.36639e-05
4.66991e-05
0.000160597
0.000138666
0.000252933
0.000268304
0.000375433
0.000437247
0.000533577
0.000646181
0.000734075
0.000893262
0.00116518
0.000984654
3.3446e-06
-2.57753e-05
1.55377e-05
-4.40762e-05
3.94787e-05
-3.34247e-05
7.84065e-05
7.77138e-06
0.000135944
8.11281e-05
0.000216137
0.000188111
0.000323525
0.000329859
0.000463428
0.000506278
0.000642349
0.000714341
0.000940546
0.000866981
2.47984e-06
-2.82551e-05
1.20824e-05
-5.36788e-05
3.15353e-05
-5.28775e-05
6.38696e-05
-2.45629e-05
0.000112471
3.25266e-05
0.000181135
0.000119447
0.00027417
0.000236824
0.000396617
0.00038383
0.000554406
0.000556552
0.000742022
0.00075293
1.66257e-06
-2.99177e-05
8.81103e-06
-6.08273e-05
2.40111e-05
-6.80776e-05
5.01014e-05
-5.06533e-05
9.02459e-05
-7.61779e-06
0.000147996
6.16973e-05
0.000227391
0.000157429
0.000333086
0.000278135
0.000470247
0.000419391
0.000569277
0.000642993
8.93173e-07
-3.08109e-05
5.72846e-06
-6.56626e-05
1.69203e-05
-7.92695e-05
3.71275e-05
-7.08604e-05
6.93019e-05
-3.97923e-05
0.000116747
1.4252e-05
0.000183197
9.098e-05
0.000272843
0.000188489
0.000390053
0.00030218
0.000421514
0.000537817
1.72068e-07
-3.09829e-05
2.83705e-06
-6.83275e-05
1.02712e-05
-8.67036e-05
2.49626e-05
-8.55518e-05
4.96587e-05
-6.44884e-05
8.74097e-05
-2.3499e-05
0.000141616
3.6774e-05
0.000215974
0.000114131
0.000314097
0.000204057
0.000297291
0.00043832
-5.03052e-07
-3.04799e-05
1.41231e-07
-6.89718e-05
4.07054e-06
-9.06329e-05
1.362e-05
-9.51013e-05
3.13366e-05
-8.2205e-05
6.00146e-05
-5.2177e-05
0.000102708
-5.91908e-06
0.000162618
5.42209e-05
0.000242682
0.000123992
0.00019545
0.000344523
-1.12949e-06
-2.93504e-05
-2.36189e-06
-6.77394e-05
-1.67297e-06
-9.13218e-05
3.11759e-06
-9.98918e-05
1.43665e-05
-9.34539e-05
3.46154e-05
-7.24259e-05
6.65742e-05
-3.78778e-05
0.00011297
7.82473e-06
0.000176152
6.08102e-05
0.000114332
0.00025727
-1.70713e-06
-2.76433e-05
-4.66093e-06
-6.47856e-05
-6.94558e-06
-8.90372e-05
-6.51902e-06
-0.000100318
-1.20692e-06
-9.8766e-05
1.12889e-05
-8.49217e-05
3.33502e-05
-5.99391e-05
6.72714e-05
-2.60965e-05
0.000114902
1.31794e-05
5.21884e-05
0.000177045
-2.23378e-06
-2.54095e-05
-6.74987e-06
-6.02695e-05
-1.17287e-05
-8.40584e-05
-1.52554e-05
-9.67917e-05
-1.53255e-05
-9.86959e-05
-9.86784e-06
-9.03794e-05
3.19596e-06
-7.30029e-05
2.57796e-05
-4.86801e-05
5.93101e-05
-2.03511e-05
7.17814e-06
0.00010432
-2.70658e-06
-2.27029e-05
-8.6182e-06
-5.43579e-05
-1.59993e-05
-7.66772e-05
-2.30496e-05
-8.97414e-05
-2.7919e-05
-9.38266e-05
-2.87434e-05
-8.9555e-05
-2.3716e-05
-7.80303e-05
-1.1238e-05
-6.1158e-05
9.96758e-06
-4.15567e-05
-2.23599e-05
3.95057e-05
-3.12199e-06
-1.95809e-05
-1.02537e-05
-4.72262e-05
-1.97313e-05
-6.71996e-05
-2.98548e-05
-7.96179e-05
-3.89107e-05
-8.47706e-05
-4.52182e-05
-8.32475e-05
-4.72058e-05
-7.60428e-05
-4.35689e-05
-6.47949e-05
-3.35154e-05
-5.16102e-05
-3.89383e-05
-1.6937e-05
-3.47617e-06
-1.61047e-05
-1.16432e-05
-3.90591e-05
-2.28967e-05
-5.59461e-05
-3.56218e-05
-6.68929e-05
-4.82217e-05
-7.21707e-05
-5.91713e-05
-7.22979e-05
-6.70974e-05
-6.81167e-05
-7.09281e-05
-6.09642e-05
-7.0051e-05
-5.24874e-05
-4.46647e-05
-6.43245e-05
-3.76522e-06
-1.23395e-05
-1.27738e-05
-3.00505e-05
-2.54684e-05
-4.32516e-05
-4.0303e-05
-5.20582e-05
-5.57762e-05
-5.66975e-05
-7.0489e-05
-5.7585e-05
-8.32265e-05
-5.53793e-05
-9.30939e-05
-5.10967e-05
-9.9628e-05
-4.59533e-05
-4.14366e-05
-0.000102856
-3.98558e-06
-8.35395e-06
-1.36335e-05
-2.04026e-05
-2.74214e-05
-2.94637e-05
-4.38557e-05
-3.5624e-05
-6.15071e-05
-3.90461e-05
-7.90722e-05
-4.002e-05
-9.54545e-05
-3.8997e-05
-0.00010989
-3.6661e-05
-0.00012203
-3.38134e-05
-3.14486e-05
-0.000132018
-4.13426e-06
-4.21969e-06
-1.42125e-05
-1.03243e-05
-2.87357e-05
-1.49405e-05
-4.6245e-05
-1.81146e-05
-6.53601e-05
-1.99311e-05
-8.48413e-05
-2.05387e-05
-0.000103671
-2.0167e-05
-0.000121173
-1.91598e-05
-0.000137071
-1.79151e-05
-1.69315e-05
-0.000151588
-4.20916e-06
-1.45039e-05
-2.93966e-05
-4.74463e-05
-6.72968e-05
-8.77408e-05
-0.0001078
-0.000126841
-0.000144625
-0.000161415
-0.00016596
4.42546e-06
1.13567e-07
-0.000168512
2.43467e-06
1.17007e-07
-0.000167927
-6.99723e-07
1.15187e-07
-0.000163611
-4.43735e-06
1.20542e-07
-0.00015501
-8.72305e-06
1.22526e-07
-0.000141821
-1.33121e-05
1.23233e-07
-0.000123926
-1.80186e-05
1.23189e-07
-0.000101352
-2.26958e-05
1.22442e-07
-7.42445e-05
-2.7229e-05
1.21004e-07
-4.28287e-05
-3.15347e-05
1.18887e-07
-7.38747e-06
-3.55573e-05
1.16107e-07
3.17641e-05
-3.92642e-05
1.12672e-07
7.42965e-05
-4.26409e-05
1.08581e-07
0.000119879
-4.5686e-05
1.0382e-07
0.000168187
-4.84068e-05
9.83595e-08
0.000218911
-5.08161e-05
9.21501e-08
0.000271756
-5.29298e-05
8.51231e-08
0.000326443
-5.47649e-05
7.71894e-08
0.000382713
-5.63384e-05
6.82416e-08
0.000440322
-5.76666e-05
5.81564e-08
0.00049904
-5.8765e-05
4.67989e-08
0.000558654
-5.96478e-05
3.40288e-08
0.000618962
-6.03279e-05
1.97091e-08
0.000679776
-6.08172e-05
3.71629e-09
0.000740916
-6.11268e-05
-1.40447e-08
0.000802217
-6.12666e-05
-3.36258e-08
0.000863518
-6.12463e-05
-5.50142e-08
0.00092467
-6.10743e-05
-7.8113e-08
0.000985533
-6.076e-05
-1.02713e-07
0.00104597
-6.03097e-05
-1.28467e-07
0.00110586
-5.97362e-05
-1.54864e-07
0.00116508
-5.90363e-05
-1.81192e-07
0.00122353
-5.82446e-05
-2.06541e-07
0.00128107
-5.73103e-05
-2.29697e-07
0.00133769
-5.63719e-05
-2.49359e-07
0.00139312
-5.51598e-05
-2.63526e-07
0.00144765
-5.42652e-05
-2.71026e-07
0.00150042
-5.24999e-05
-2.67815e-07
0.00155294
-5.2266e-05
-2.55695e-07
0.001602
-4.88397e-05
-2.22437e-07
0.00165342
-5.12262e-05
-1.85532e-07
-4.28343e-05
-9.50426e-08
-0.000155892
8.70927e-06
-0.000158159
4.70221e-06
-0.000157304
-1.5549e-06
-0.000152731
-9.00978e-06
-0.000143909
-1.75456e-05
-0.000130542
-2.66785e-05
-0.000112522
-3.60387e-05
-8.98821e-05
-4.5336e-05
-6.27669e-05
-5.43441e-05
-3.14026e-05
-6.28991e-05
3.93209e-06
-7.0892e-05
4.29272e-05
-7.82593e-05
8.52596e-05
-8.49733e-05
0.000130605
-9.10314e-05
0.000178646
-9.64481e-05
0.000229079
-0.000101249
0.000281615
-0.000105465
0.00033598
-0.00010913
0.000391918
-0.000112277
0.00044919
-0.000114938
0.000507569
-0.000117145
0.000566845
-0.000118924
0.000626819
-0.000120302
0.000687304
-0.000121302
0.000748122
-0.000121945
0.000809109
-0.000122253
0.000870106
-0.000122244
0.000930966
-0.000121934
0.000991547
-0.000121341
0.00105172
-0.000120479
0.00111135
-0.000119372
0.00117033
-0.000118013
0.00122855
-0.000116469
0.00128588
-0.000114639
0.00134231
-0.000112798
0.00139755
-0.000110404
0.00145193
-0.00010864
0.00150455
-0.000105122
0.00155694
-0.000104662
0.0016059
-9.77952e-05
0.00165722
-0.000102548
-8.57383e-05
-0.000135836
1.24938e-05
-0.000137543
6.40902e-06
-0.000136152
-2.9453e-06
-0.000131074
-1.40878e-05
-0.000121813
-2.68064e-05
-0.000108097
-4.03947e-05
-8.98329e-05
-5.43032e-05
-6.70639e-05
-6.8105e-05
-3.99393e-05
-8.14688e-05
-8.68193e-06
-9.41564e-05
2.64361e-05
-0.00010601
6.51162e-05
-0.000116939
0.000107048
-0.000126905
0.00015192
-0.000135903
0.000199428
-0.000143957
0.000249281
-0.000151102
0.000301201
-0.000157385
0.000354924
-0.000162853
0.000410204
-0.000167557
0.000466807
-0.000171541
0.000524515
-0.000174852
0.000583121
-0.00017753
0.000642431
-0.000179612
0.000702263
-0.000181133
0.000762443
-0.000182126
0.000822808
-0.000182618
0.000883203
-0.000182639
0.000943482
-0.000182213
0.00100351
-0.000181366
0.00106314
-0.000180117
0.00112227
-0.000178503
0.00118077
-0.000176512
0.00123855
-0.000174246
0.00129546
-0.00017155
0.0013515
-0.000168838
0.00140639
-0.000165293
0.00146045
-0.000162695
0.00151278
-0.000157458
0.00156493
-0.00015681
0.00161367
-0.000146541
0.00166482
-0.000153694
-0.000128594
-0.000105968
1.55582e-05
-0.000106856
7.29668e-06
-0.000104675
-5.12579e-06
-9.88562e-05
-1.99069e-05
-8.89532e-05
-3.67094e-05
-7.47273e-05
-5.46206e-05
-5.61113e-05
-7.29192e-05
-3.31638e-05
-9.10525e-05
-6.03788e-06
-0.000108595
2.50465e-05
-0.000125241
5.98305e-05
-0.000140794
9.80316e-05
-0.000155141
0.000139358
-0.000168231
0.00018352
-0.000180065
0.000230231
-0.000190668
0.000279219
-0.00020009
0.000330222
-0.000208388
0.000382991
-0.000215623
0.000437293
-0.000221858
0.000492904
-0.000227153
0.000549616
-0.000231564
0.000607231
-0.000235144
0.00066556
-0.000237941
0.000724428
-0.00024
0.000783664
-0.000241363
0.000843112
-0.000242066
0.000902619
-0.000242146
0.000962041
-0.000241635
0.00102124
-0.000240569
0.0010801
-0.000238971
0.00113849
-0.000236889
0.00119628
-0.000234308
0.0012534
-0.000231364
0.0013097
-0.000227846
0.00136517
-0.000224311
0.00141954
-0.000219662
0.00147313
-0.000216282
0.00152504
-0.000209374
0.00157683
-0.000208597
0.00162527
-0.000194982
0.00167616
-0.000204585
-0.000171384
-6.65502e-05
1.77211e-05
-6.63733e-05
7.11979e-06
-6.31696e-05
-8.32949e-06
-5.63947e-05
-2.66818e-05
-4.56639e-05
-4.74403e-05
-3.07867e-05
-6.94978e-05
-1.17303e-05
-9.19756e-05
1.14268e-05
-0.00011421
3.85267e-05
-0.000135694
6.93588e-05
-0.000156073
0.00010368
-0.000175115
0.00014123
-0.00019269
0.000181743
-0.000208745
0.000224955
-0.000223277
0.000270608
-0.000236321
0.000318451
-0.000247933
0.000368244
-0.000258181
0.000419758
-0.000267137
0.000472774
-0.000274874
0.000527084
-0.000281464
0.000582492
-0.000286972
0.000638809
-0.000291461
0.000695856
-0.000294988
0.000753463
-0.000297608
0.000811469
-0.000299369
0.00086972
-0.000300317
0.00092807
-0.000300495
0.000986378
-0.000299944
0.00104451
-0.000298705
0.00110235
-0.000296807
0.00115977
-0.000294311
0.00121666
-0.000291194
0.00127292
-0.000287629
0.00132842
-0.000283348
0.00138317
-0.000279053
0.00143687
-0.000273362
0.00148985
-0.000269268
0.00154123
-0.000260752
0.00159256
-0.000259923
0.00164061
-0.000243036
0.00169118
-0.000255154
-0.0002141
-1.77867e-05
1.8493e-05
-1.64266e-05
5.75967e-06
-1.20138e-05
-1.27423e-05
-4.08497e-06
-3.46106e-05
7.62556e-06
-5.91508e-05
2.32647e-05
-8.51369e-05
4.28219e-05
-0.000111533
6.61948e-05
-0.000137582
9.32209e-05
-0.000162721
0.000123701
-0.000186553
0.000157414
-0.000208828
0.000194129
-0.000229406
0.000233615
-0.000248231
0.000275639
-0.000265301
0.000319975
-0.000280656
0.0003664
-0.000294358
0.000414701
-0.000306481
0.00046467
-0.000317106
0.00051611
-0.000326314
0.000568828
-0.000334182
0.000622642
-0.000340785
0.000677375
-0.000346194
0.000732859
-0.000350473
0.000788933
-0.000353682
0.000845444
-0.000355879
0.000902242
-0.000357115
0.000959188
-0.000357441
0.00101615
-0.000356902
0.00107299
-0.000355549
0.0011296
-0.000353413
0.00118585
-0.000350567
0.00124164
-0.000346982
0.00129688
-0.000342868
0.00135143
-0.000337896
0.00140529
-0.000332918
0.00145819
-0.00032626
0.00151046
-0.000321538
0.0015612
-0.000311492
0.00161198
-0.000310704
0.00165958
-0.000290637
0.00170978
-0.000305349
-0.000256745
3.97226e-05
1.81796e-05
4.25325e-05
2.94979e-06
4.8327e-05
-1.85368e-05
5.75498e-05
-4.38334e-05
7.03796e-05
-7.19806e-05
8.68704e-05
-0.000101628
0.000106959
-0.000131621
0.00013052
-0.000161144
0.000157393
-0.000189593
0.000187394
-0.000216554
0.000220335
-0.000241769
0.000256021
-0.000265092
0.000294259
-0.000286468
0.000334855
-0.000305897
0.000377619
-0.000323421
0.000422364
-0.000339102
0.000468903
-0.000353021
0.000517057
-0.00036526
0.000566648
-0.000375905
0.000617504
-0.000385038
0.000669457
-0.000392739
0.000722346
-0.000399083
0.000776014
-0.00040414
0.000830309
-0.000407977
0.000885085
-0.000410655
0.000940203
-0.000412232
0.000995526
-0.000412765
0.00105093
-0.000412303
0.00110628
-0.000410904
0.00116147
-0.000408602
0.00121639
-0.000405484
0.00127092
-0.000401511
0.00132498
-0.000396931
0.00137844
-0.000391354
0.00143131
-0.000385784
0.00148329
-0.000378248
0.00153475
-0.000372997
0.00158478
-0.000361514
0.00163495
-0.000360878
0.00168205
-0.00033774
0.00173184
-0.000355138
-0.000299333
0.000105698
1.66854e-05
0.000110011
-1.36357e-06
0.000117326
-2.58517e-05
0.000127984
-5.44909e-05
0.000142017
-8.60145e-05
0.000159396
-0.000119006
0.000179999
-0.000152224
0.000203679
-0.000184824
0.000230281
-0.000216195
0.000259649
-0.000245922
0.00029163
-0.00027375
0.000326076
-0.000299538
0.000362837
-0.000323229
0.000401765
-0.000344826
0.000442711
-0.000364367
0.000485524
-0.000381915
0.00053005
-0.000397547
0.000576136
-0.000411346
0.00062363
-0.000423399
0.000672379
-0.000433787
0.000722235
-0.000442594
0.000773048
-0.000449896
0.000824675
-0.000455768
0.000876975
-0.000460277
0.000929811
-0.000463491
0.000983051
-0.000465472
0.00103657
-0.000466279
0.00109023
-0.000465969
0.00114393
-0.000464604
0.00119755
-0.000462221
0.00125099
-0.000458919
0.00130412
-0.00045465
0.00135689
-0.0004497
0.00140916
-0.000443616
0.00146093
-0.000437558
0.00151193
-0.000429246
0.00156251
-0.000423579
0.00161176
-0.000410765
0.00166129
-0.000410405
0.00170787
-0.00038432
0.00175724
-0.000404508
-0.000341897
0.000179855
1.37337e-05
0.000185327
-6.83519e-06
0.000194416
-3.4941e-05
0.000206596
-6.66711e-05
0.000221878
-0.000101297
0.000240131
-0.000137259
0.000261177
-0.000173271
0.000284856
-0.000208503
0.000311027
-0.000242366
0.000339569
-0.000274464
0.000370377
-0.000304558
0.000403355
-0.000332515
0.000438405
-0.000358279
0.000475428
-0.000381848
0.000514317
-0.000403256
0.00055496
-0.000422558
0.000597239
-0.000439826
0.00064103
-0.000455137
0.000686205
-0.000468574
0.000732634
-0.000480216
0.000780184
-0.000490144
0.000828724
-0.000498436
0.000878121
-0.000505165
0.000928245
-0.000510402
0.00097897
-0.000514216
0.00103017
-0.000516672
0.00108172
-0.000517833
0.00113351
-0.00051776
0.00118543
-0.000516519
0.00123736
-0.00051415
0.0012892
-0.000510763
0.00134085
-0.0005063
0.00139224
-0.000501089
0.00144323
-0.000494605
0.00149385
-0.000488175
0.0015438
-0.000479201
0.00159347
-0.000473245
0.00164192
-0.000459219
0.00169079
-0.000459272
0.00173685
-0.000430381
0.00178581
-0.000453471
-0.000384487
0.000261238
9.598e-06
0.000268315
-1.39122e-05
0.000279031
-4.56574e-05
0.000292753
-8.03933e-05
0.000309259
-0.000117802
0.000328302
-0.000156303
0.000349655
-0.000194623
0.00037315
-0.000231998
0.000398676
-0.000267892
0.000426161
-0.00030195
0.000455557
-0.000333955
0.000486825
-0.000363783
0.000519924
-0.000391378
0.000554805
-0.00041673
0.000591409
-0.00043986
0.000629664
-0.000460813
0.000669486
-0.000479648
0.000710781
-0.000496432
0.000753446
-0.000511239
0.000797372
-0.000524142
0.000842445
-0.000535218
0.000888548
-0.000544539
0.000935563
-0.000552179
0.00098337
-0.000558209
0.00103185
-0.000562697
0.00108089
-0.000565709
0.00113037
-0.000567314
0.00118018
-0.000567571
0.00123022
-0.000566555
0.00128037
-0.000564305
0.00133055
-0.000560942
0.00138065
-0.000556399
0.00143061
-0.000551044
0.00148028
-0.000544281
0.00152971
-0.000537606
0.00157861
-0.000528095
0.00162735
-0.000521987
0.00167501
-0.000506879
0.00172323
-0.000507496
0.0017688
-0.000475952
0.0018174
-0.000502067
-0.00042717
0.000349512
4.4135e-06
0.000358179
-2.25798e-05
0.000370565
-5.80432e-05
0.000385786
-9.56142e-05
0.000403412
-0.000135429
0.000423081
-0.000175971
0.00044452
-0.000216062
0.000467579
-0.000255057
0.000492192
-0.000292504
0.000518347
-0.000328105
0.000546063
-0.00036167
0.000575364
-0.000393084
0.000606268
-0.000422282
0.00063878
-0.000449242
0.000672886
-0.000473966
0.000708554
-0.000496481
0.000745735
-0.000516828
0.000784363
-0.00053506
0.00082436
-0.000551236
0.000865638
-0.00056542
0.0009081
-0.00057768
0.000951644
-0.000588083
0.000996164
-0.000596699
0.00104155
-0.000603596
0.0010877
-0.000608842
0.00113449
-0.000612503
0.00118182
-0.000614649
0.00122959
-0.000615342
0.0012777
-0.00061466
0.00132604
-0.000612642
0.00137452
-0.000609424
0.00142304
-0.000604923
0.00147155
-0.000599551
0.00151991
-0.000592639
0.00156816
-0.000585856
0.001616
-0.000575942
0.00166385
-0.00056983
0.00171075
-0.00055378
0.00175837
-0.000555122
0.00180352
-0.000521093
0.00185181
-0.000550362
-0.000470036
0.000444187
-1.68863e-06
0.000454403
-3.27957e-05
0.0004684
-7.20408e-05
0.000485003
-0.000112217
0.000503554
-0.00015398
0.00052358
-0.000195996
0.000544794
-0.000237276
0.000567085
-0.000277349
0.000590455
-0.000315874
0.000614966
-0.000352616
0.00064071
-0.000387413
0.000667776
-0.000420151
0.000696245
-0.000450751
0.00072617
-0.000479167
0.000757584
-0.00050538
0.000790492
-0.000529389
0.000824877
-0.000551213
0.000860701
-0.000570884
0.000897909
-0.000588444
0.000936432
-0.000603943
0.00097619
-0.000617437
0.00101709
-0.000628987
0.00105905
-0.000638654
0.00110196
-0.000646504
0.00114572
-0.000652601
0.00119023
-0.000657013
0.00123539
-0.000659808
0.00128109
-0.00066105
0.00132725
-0.000660821
0.00137377
-0.000659159
0.00142056
-0.000656212
0.00146752
-0.000651884
0.0015146
-0.000646633
0.00156167
-0.000639709
0.00160878
-0.000632964
0.00165563
-0.000622792
0.00170264
-0.000616835
0.00174885
-0.000599994
0.00179596
-0.000602229
0.00184076
-0.000565895
0.00188885
-0.000598452
-0.000513196
0.000544954
-9.08033e-06
0.000556455
-4.42964e-05
0.00057194
-8.75255e-05
0.000589704
-0.000129981
0.000608861
-0.000173137
0.000628854
-0.000215988
0.000649423
-0.000257845
0.000670533
-0.000298459
0.000692271
-0.000337612
0.000714785
-0.000375131
0.000738244
-0.000410872
0.000762806
-0.000444712
0.000788604
-0.000476549
0.000815743
-0.000506306
0.000844294
-0.000533931
0.000874298
-0.000559393
0.000905767
-0.000582682
0.000938687
-0.000603804
0.000973024
-0.000622781
0.00100873
-0.000639645
0.00104573
-0.000654439
0.00108395
-0.000667212
0.00112332
-0.000678018
0.00116373
-0.000686917
0.0012051
-0.000693971
0.00124733
-0.000699244
0.00129033
-0.000702805
0.00133399
-0.000704718
0.00137824
-0.000705068
0.00142298
-0.000703893
0.00146812
-0.000701354
0.00151357
-0.000697338
0.00155929
-0.000692351
0.00160514
-0.000685561
0.00165119
-0.000679009
0.00169712
-0.00066873
0.00174338
-0.000663093
0.00178901
-0.000645621
0.00183571
-0.000648926
0.00188029
-0.000610478
0.0019283
-0.000646465
-0.000556783
0.000650786
-1.71709e-05
0.000663781
-5.7292e-05
0.000680585
-0.000104329
0.000699167
-0.000148564
0.00071846
-0.000192429
0.000737885
-0.000235414
0.000757274
-0.000277234
0.000776703
-0.000317888
0.000796367
-0.000357275
0.000816504
-0.000395268
0.000837357
-0.000431725
0.000859145
-0.0004665
0.000882054
-0.000499458
0.00090623
-0.000530482
0.000931778
-0.00055948
0.000958769
-0.000586384
0.000987239
-0.000611152
0.0010172
-0.000633761
0.00104862
-0.000654207
0.00108148
-0.000672504
0.00111572
-0.000688678
0.00115127
-0.000702764
0.00118806
-0.000714809
0.00122601
-0.000724865
0.00126503
-0.000732989
0.00130503
-0.000739243
0.00134592
-0.000743695
0.00138761
-0.000746408
0.00143001
-0.000747472
0.00147304
-0.000746923
0.00151662
-0.000744933
0.00156066
-0.000741375
0.00160511
-0.000736805
0.00164985
-0.000730302
0.00169495
-0.000724104
0.0017401
-0.000713877
0.00178574
-0.000708734
0.00183092
-0.000690799
0.00187735
-0.000695356
0.00192186
-0.000654997
0.00196996
-0.000694556
-0.000600951
0.000761402
-2.59853e-05
0.000775924
-7.18138e-05
0.000793783
-0.000122188
0.000812653
-0.000167434
0.00083141
-0.000211186
0.000849567
-0.000253571
0.000867121
-0.000294788
0.000884295
-0.000335063
0.0009014
-0.00037438
0.000918763
-0.000412631
0.000936691
-0.000449654
0.000955456
-0.000485265
0.000975282
-0.000519284
0.000996348
-0.000551548
0.00101879
-0.00058192
0.0010427
-0.000610292
0.00106813
-0.000636582
0.0010951
-0.000660737
0.00112362
-0.000682726
0.00115366
-0.000702542
0.00118517
-0.00072019
0.0012181
-0.000735695
0.00125238
-0.00074909
0.00128794
-0.000760421
0.00132469
-0.000769738
0.00136255
-0.000777101
0.00140143
-0.000782577
0.00144125
-0.000786227
0.00148192
-0.000788146
0.00152336
-0.000788366
0.00156551
-0.000787076
0.00160826
-0.000784128
0.00165159
-0.000780132
0.00169536
-0.000774075
0.00173965
-0.000768398
0.00178417
-0.00075839
0.00182935
-0.000753918
0.00187425
-0.000735697
0.00192058
-0.000741693
0.00196522
-0.000699636
0.00201358
-0.000742913
-0.000645879
0.000876379
-3.57705e-05
0.000892603
-8.8038e-05
0.000911044
-0.000140629
0.000929375
-0.000185765
0.000946667
-0.000228477
0.000962676
-0.00026958
0.000977629
-0.000309741
0.000991918
-0.000349352
0.00100596
-0.000388424
0.00102016
-0.000426826
0.00103486
-0.000464358
0.00105038
-0.000500783
0.00106696
-0.000535869
0.00108482
-0.0005694
0.00110409
-0.000601191
0.00112488
-0.000631089
0.00114728
-0.000658975
0.0011713
-0.000684761
0.00119696
-0.000708389
0.00122425
-0.000729825
0.00125312
-0.00074906
0.00128352
-0.0007661
0.0013154
-0.000780968
0.00134868
-0.0007937
0.00138328
-0.000804342
0.00141913
-0.00081295
0.00145614
-0.000819589
0.00149424
-0.00082432
0.00153333
-0.000827241
0.00157335
-0.000828381
0.00161421
-0.000827944
0.00165585
-0.000825763
0.00169822
-0.000822503
0.0017412
-0.000817056
0.00178488
-0.000812073
0.00182894
-0.000802456
0.00187386
-0.000798839
0.00191868
-0.000780516
0.00196513
-0.00078814
0.0020101
-0.000744608
0.00205894
-0.000791753
-0.000691764
0.000995615
-4.71682e-05
0.00101368
-0.000106104
0.00103184
-0.000158787
0.0010484
-0.000202322
0.001063
-0.000243081
0.00107581
-0.00028239
0.00108732
-0.000321251
0.00109807
-0.000360104
0.00110856
-0.000398913
0.00111923
-0.000437492
0.00113045
-0.000475579
0.00114254
-0.000512879
0.00115578
-0.000549102
0.00117036
-0.00058398
0.00118644
-0.000617278
0.00120415
-0.000648798
0.00122356
-0.000678383
0.00124471
-0.000705909
0.00126761
-0.00073129
0.00129225
-0.000754469
0.00131861
-0.000775414
0.00134663
-0.000794118
0.00137625
-0.000810591
0.00140741
-0.000824861
0.00144004
-0.000836968
0.00147405
-0.000846963
0.00150937
-0.00085491
0.00154592
-0.00086087
0.00158362
-0.000864944
0.0016224
-0.000867159
0.00166219
-0.000867734
0.00170291
-0.000866481
0.00174453
-0.000864125
0.00178693
-0.000859457
0.0018302
-0.000855345
0.00187404
-0.000846296
0.00191893
-0.000843723
0.0019639
-0.000825488
0.00201069
-0.000834931
0.00205624
-0.000790159
0.00210581
-0.00084132
-0.000738828
0.00111927
-6.10753e-05
0.00113907
-0.000125907
0.00115552
-0.000175232
0.00116854
-0.000215347
0.00117893
-0.000253466
0.00118736
-0.000290826
0.00119456
-0.000328451
0.00120115
-0.000366689
0.00120764
-0.000405402
0.00121447
-0.00044432
0.001222
-0.000483114
0.00123056
-0.000521432
0.00124038
-0.000558929
0.00125169
-0.000595286
0.00126463
-0.000630221
0.00127933
-0.000663494
0.00129585
-0.000694908
0.00131425
-0.000724308
0.00133454
-0.000751576
0.0013567
-0.000776633
0.00138071
-0.000799427
0.00140653
-0.000819934
0.00143409
-0.000838154
0.00146334
-0.000854105
0.00149419
-0.000867822
0.00152658
-0.000879352