/*--------------------------------*- C++ -*----------------------------------*\
  =========                 |
  \\      /  F ield         | OpenFOAM: The Open Source CFD Toolbox
   \\    /   O peration     | Website:  https://openfoam.org
    \\  /    A nd           | Version:  7
     \\/     M anipulation  |
\*---------------------------------------------------------------------------*/
FoamFile
{
    version     2.0;
    format      ascii;
    class       volScalarField;
    location    "35";
    object      p;
}
// * * * * * * * * * * * * * * * * * * * * * * * * * * * * * * * * * * * * * //

dimensions      [0 2 -2 0 0 0 0];

internalField   nonuniform List<scalar> 
6386
(
-0.194802
-0.196743
-0.197656
-0.198397
-0.199035
-0.199597
-0.200104
-0.200563
-0.200973
-0.201342
-0.195003
-0.196919
-0.197819
-0.198546
-0.199171
-0.199719
-0.200213
-0.200659
-0.201053
-0.201397
-0.195393
-0.197262
-0.198136
-0.198837
-0.199436
-0.199957
-0.200423
-0.20084
-0.201202
-0.201488
-0.195965
-0.197767
-0.198602
-0.199265
-0.199825
-0.200306
-0.200728
-0.2011
-0.20141
-0.201599
-0.196709
-0.198427
-0.199211
-0.199823
-0.200329
-0.200755
-0.201117
-0.201425
-0.201666
-0.20171
-0.197616
-0.199233
-0.199954
-0.200501
-0.20094
-0.201295
-0.201578
-0.201802
-0.201958
-0.201794
-0.198673
-0.200175
-0.200822
-0.20129
-0.201646
-0.201913
-0.202099
-0.202215
-0.202275
-0.201813
-0.199868
-0.201243
-0.201803
-0.202179
-0.202436
-0.202599
-0.202665
-0.202645
-0.202605
-0.201718
-0.20119
-0.202428
-0.20289
-0.203158
-0.203298
-0.203339
-0.203266
-0.203075
-0.20295
-0.201436
-0.202627
-0.203722
-0.204073
-0.204217
-0.204224
-0.204124
-0.203891
-0.203491
-0.203341
-0.200871
-0.204174
-0.205118
-0.205346
-0.205349
-0.205204
-0.204945
-0.204534
-0.203876
-0.203807
-0.200105
-0.205825
-0.206613
-0.206702
-0.206547
-0.206231
-0.205796
-0.205189
-0.204217
-0.20398
-0.19941
-0.207581
-0.208206
-0.208142
-0.207808
-0.2073
-0.20667
-0.205859
-0.204672
-0.204068
-0.198416
-0.209447
-0.209901
-0.209664
-0.20913
-0.20841
-0.207568
-0.206526
-0.205117
-0.204211
-0.197128
-0.211432
-0.211704
-0.211275
-0.210515
-0.20956
-0.208487
-0.207204
-0.205561
-0.204366
-0.195663
-0.213631
-0.212983
-0.211969
-0.210752
-0.209429
-0.207891
-0.206043
-0.204458
-0.194188
-0.215697
-0.214802
-0.213503
-0.211994
-0.210396
-0.208581
-0.206595
-0.204371
-0.192883
-0.217927
-0.216751
-0.215134
-0.213299
-0.211398
-0.209276
-0.207254
-0.203912
-0.191855
-0.218863
-0.216885
-0.214688
-0.212454
-0.20999
-0.208052
-0.202986
-0.191858
-0.221162
-0.218786
-0.216193
-0.213595
-0.210759
-0.208942
-0.201972
-0.196207
-0.220877
-0.217852
-0.214859
-0.21162
-0.209724
-0.201519
-0.20742
-0.219713
-0.216291
-0.212624
-0.210273
-0.2018
-0.206559
-0.221831
-0.21794
-0.213814
-0.21069
-0.202343
-0.203824
-0.21985
-0.215198
-0.211134
-0.202777
-0.20115
-0.216772
-0.211651
-0.202976
-0.198451
-0.212222
-0.202862
-0.195831
-0.202413
-0.193219
-0.190536
-0.201736
-0.19058
-0.202553
-0.193281
-0.212442
-0.203025
-0.195913
-0.217038
-0.211894
-0.203163
-0.198554
-0.220127
-0.215481
-0.211399
-0.202988
-0.201272
-0.222098
-0.218228
-0.214113
-0.210974
-0.202575
-0.203963
-0.219985
-0.216588
-0.212936
-0.210574
-0.20205
-0.206707
-0.221121
-0.218124
-0.21516
-0.21194
-0.210037
-0.201783
-0.207569
-0.221376
-0.219024
-0.216461
-0.213895
-0.211081
-0.209262
-0.202245
-0.196362
-0.219065
-0.217113
-0.214949
-0.212749
-0.210309
-0.208372
-0.203263
-0.192013
-0.218096
-0.216937
-0.215348
-0.213546
-0.21168
-0.209584
-0.207565
-0.204186
-0.192003
-0.215845
-0.214969
-0.213699
-0.212224
-0.210661
-0.208871
-0.206888
-0.204632
-0.193018
-0.213662
-0.213756
-0.21313
-0.212144
-0.21096
-0.209671
-0.208156
-0.206311
-0.204698
-0.194305
-0.211511
-0.211806
-0.211398
-0.210667
-0.209744
-0.208702
-0.207441
-0.205799
-0.20458
-0.195757
-0.209497
-0.209978
-0.209764
-0.209257
-0.208567
-0.207753
-0.206732
-0.205319
-0.204391
-0.197196
-0.207604
-0.208259
-0.208217
-0.207909
-0.20743
-0.206825
-0.206032
-0.204838
-0.204217
-0.198452
-0.205822
-0.206643
-0.206755
-0.206624
-0.206333
-0.20592
-0.205326
-0.204354
-0.204077
-0.199427
-0.204148
-0.205128
-0.205377
-0.205403
-0.20528
-0.20504
-0.204638
-0.203982
-0.203801
-0.200152
-0.202582
-0.203714
-0.204086
-0.204251
-0.204277
-0.204192
-0.203966
-0.203563
-0.203342
-0.200879
-0.20113
-0.202406
-0.202888
-0.203174
-0.203331
-0.203383
-0.203314
-0.203116
-0.202942
-0.201399
-0.199799
-0.20121
-0.201789
-0.202181
-0.202451
-0.202624
-0.202692
-0.202661
-0.202581
-0.201654
-0.1986
-0.200136
-0.200799
-0.201282
-0.201649
-0.201923
-0.202108
-0.202212
-0.202238
-0.201733
-0.197544
-0.199191
-0.199927
-0.200486
-0.200934
-0.201294
-0.201576
-0.201788
-0.201915
-0.201709
-0.196643
-0.198387
-0.199183
-0.199805
-0.200319
-0.200748
-0.201107
-0.201405
-0.201621
-0.201628
-0.195908
-0.197732
-0.198577
-0.199248
-0.199813
-0.200296
-0.200715
-0.201078
-0.201369
-0.201526
-0.19535
-0.197235
-0.198115
-0.198822
-0.199425
-0.199948
-0.200411
-0.200822
-0.201169
-0.201431
-0.194976
-0.196902
-0.197806
-0.198536
-0.199163
-0.199712
-0.200205
-0.200646
-0.201032
-0.201362
-0.194793
-0.196737
-0.197652
-0.198394
-0.199033
-0.199594
-0.200101
-0.200559
-0.200966
-0.20133
-0.201782
-0.202088
-0.202397
-0.202703
-0.203002
-0.203292
-0.203567
-0.203819
-0.204039
-0.204216
-0.204339
-0.204396
-0.204373
-0.204256
-0.20403
-0.203675
-0.203173
-0.202499
-0.201624
-0.200517
-0.199135
-0.197438
-0.19538
-0.192899
-0.189927
-0.186389
-0.18219
-0.177242
-0.171413
-0.164641
-0.156726
-0.147731
-0.137337
-0.125888
-0.112924
-0.0990872
-0.0842
-0.0679816
-0.0536183
-0.0336481
-0.0252319
0.00282249
-0.201884
-0.20218
-0.20249
-0.202804
-0.203113
-0.203417
-0.203709
-0.203981
-0.204225
-0.20443
-0.204584
-0.204674
-0.204687
-0.204606
-0.204414
-0.204092
-0.203615
-0.202957
-0.202085
-0.200964
-0.199544
-0.197784
-0.195635
-0.193036
-0.189919
-0.186212
-0.181828
-0.176691
-0.170682
-0.163757
-0.155729
-0.14669
-0.136308
-0.124957
-0.112187
-0.098608
-0.0840044
-0.068116
-0.0540277
-0.0342728
-0.0259694
0.00240921
-0.20206
-0.202333
-0.202638
-0.202955
-0.203272
-0.203587
-0.203894
-0.204186
-0.204453
-0.204685
-0.204869
-0.204992
-0.205039
-0.204994
-0.204838
-0.204547
-0.204097
-0.203458
-0.202593
-0.201455
-0.200002
-0.198182
-0.195948
-0.193235
-0.189978
-0.186109
-0.181547
-0.176229
-0.170045
-0.162975
-0.154839
-0.145756
-0.135397
-0.124123
-0.111546
-0.0982265
-0.0838938
-0.06833
-0.0544953
-0.0349514
-0.0267658
0.00196703
-0.202302
-0.202536
-0.20283
-0.203148
-0.20347
-0.203795
-0.204117
-0.204427
-0.204716
-0.204973
-0.205186
-0.205341
-0.205423
-0.205413
-0.205292
-0.205034
-0.204611
-0.203991
-0.203135
-0.201989
-0.2005
-0.198625
-0.196311
-0.193491
-0.190101
-0.186078
-0.181346
-0.175856
-0.169507
-0.162299
-0.15406
-0.14494
-0.134595
-0.123572
-0.110995
-0.0979434
-0.0838669
-0.0686184
-0.0550224
-0.0356791
-0.0275435
0.00144109
-0.202597
-0.202779
-0.203056
-0.203373
-0.203698
-0.204032
-0.204366
-0.204694
-0.205004
-0.205285
-0.205526
-0.205713
-0.205828
-0.205854
-0.205767
-0.205542
-0.205148
-0.204548
-0.203699
-0.202556
-0.201031
-0.199107
-0.196718
-0.193799
-0.190284
-0.186116
-0.181224
-0.175571
-0.169065
-0.16173
-0.153395
-0.144244
-0.133915
-0.122973
-0.110607
-0.0977839
-0.0839461
-0.0689946
-0.0556165
-0.0364029
-0.0283267
0.000867963
-0.202934
-0.203046
-0.203302
-0.203618
-0.203944
-0.204285
-0.204631
-0.204975
-0.205305
-0.20561
-0.205878
-0.206095
-0.206243
-0.206304
-0.206252
-0.206061
-0.205696
-0.205118
-0.20428
-0.203132
-0.201604
-0.199618
-0.197161
-0.194149
-0.190518
-0.186214
-0.181173
-0.175369
-0.168717
-0.161265
-0.152841
-0.143668
-0.133355
-0.122504
-0.11027
-0.0977357
-0.0841164
-0.0694412
-0.0562475
-0.0371958
-0.0290514
0.000275717
-0.2033
-0.203323
-0.203556
-0.20387
-0.204196
-0.204542
-0.204899
-0.205258
-0.205607
-0.205934
-0.206229
-0.206475
-0.206656
-0.206751
-0.206735
-0.206578
-0.206243
-0.20569
-0.204865
-0.203716
-0.202179
-0.200147
-0.19763
-0.194533
-0.190795
-0.186367
-0.181186
-0.175243
-0.168456
-0.160898
-0.152393
-0.143204
-0.132911
-0.122162
-0.110064
-0.0977495
-0.0843363
-0.069915
-0.0568798
-0.0380088
-0.0297492
-0.000334084
-0.203696
-0.203593
-0.203801
-0.204115
-0.20444
-0.204791
-0.205158
-0.20553
-0.205896
-0.206246
-0.206566
-0.206841
-0.207054
-0.207183
-0.207202
-0.20708
-0.206777
-0.20625
-0.205443
-0.204297
-0.202742
-0.200682
-0.198113
-0.194941
-0.191105
-0.186563
-0.181255
-0.175186
-0.168275
-0.160623
-0.152044
-0.142847
-0.132573
-0.121928
-0.109963
-0.0978537
-0.0846276
-0.0704375
-0.057527
-0.0387912
-0.0304057
-0.000958302
-0.204157
-0.203839
-0.204026
-0.204342
-0.204664
-0.205019
-0.205393
-0.205779
-0.206161
-0.206531
-0.206875
-0.207178
-0.207423
-0.207586
-0.207641
-0.207554
-0.207285
-0.206786
-0.206
-0.204862
-0.203299
-0.201215
-0.198598
-0.19536
-0.191436
-0.186792
-0.181369
-0.175186
-0.168163
-0.160428
-0.151785
-0.142585
-0.132331
-0.121792
-0.109944
-0.0980326
-0.0849638
-0.0709935
-0.058191
-0.03954
-0.0310003
-0.0015907
-0.204736
-0.204049
-0.204218
-0.20454
-0.204858
-0.205216
-0.205592
-0.205991
-0.206388
-0.206776
-0.207144
-0.207474
-0.20775
-0.207948
-0.208038
-0.207988
-0.207754
-0.207285
-0.206523
-0.205399
-0.203832
-0.201735
-0.199076
-0.19578
-0.191779
-0.187045
-0.181518
-0.175234
-0.168111
-0.160305
-0.151605
-0.142408
-0.132171
-0.12174
-0.109998
-0.0982673
-0.0853454
-0.071555
-0.0588546
-0.0402548
-0.0315219
-0.00222499
-0.205106
-0.204307
-0.204379
-0.204698
-0.205012
-0.205375
-0.205737
-0.206153
-0.206564
-0.20697
-0.20736
-0.207717
-0.208024
-0.208255
-0.208383
-0.208369
-0.208171
-0.207736
-0.206999
-0.205893
-0.204328
-0.202229
-0.199532
-0.196189
-0.192122
-0.187309
-0.181691
-0.175319
-0.168106
-0.160242
-0.151491
-0.142303
-0.132091
-0.12175
-0.110112
-0.0985443
-0.0857573
-0.0721128
-0.0595031
-0.0409311
-0.0319645
-0.00285543
-0.205355
-0.20461
-0.204502
-0.204807
-0.205117
-0.205462
-0.205843
-0.206257
-0.206678
-0.207101
-0.207512
-0.207895
-0.208232
-0.208498
-0.208662
-0.208687
-0.208526
-0.208125
-0.207418
-0.206333
-0.204774
-0.202681
-0.199955
-0.196575
-0.192452
-0.187573
-0.181877
-0.17543
-0.168141
-0.160224
-0.151434
-0.142256
-0.132067
-0.121817
-0.110271
-0.0988489
-0.0861861
-0.0726564
-0.0601252
-0.0415644
-0.0323247
-0.00347668
-0.20565
-0.204907
-0.204582
-0.20487
-0.205168
-0.205494
-0.205875
-0.206289
-0.206718
-0.207156
-0.207587
-0.207996
-0.208363
-0.208663
-0.208864
-0.208928
-0.208806
-0.208442
-0.207767
-0.206708
-0.20516
-0.203077
-0.200335
-0.196927
-0.19276
-0.187827
-0.182065
-0.175555
-0.168201
-0.160243
-0.151419
-0.142256
-0.13209
-0.121925
-0.110464
-0.0991669
-0.0866197
-0.0731748
-0.0607107
-0.0421516
-0.0326014
-0.004084
-0.205982
-0.205211
-0.204625
-0.204884
-0.205159
-0.205455
-0.205825
-0.206238
-0.206675
-0.207126
-0.207577
-0.208011
-0.208408
-0.208742
-0.20898
-0.209083
-0.209
-0.208675
-0.208035
-0.207004
-0.205472
-0.203405
-0.200658
-0.197232
-0.193033
-0.188058
-0.182243
-0.175682
-0.168275
-0.160285
-0.151435
-0.142289
-0.132147
-0.122058
-0.110677
-0.0994847
-0.0870467
-0.0736583
-0.0612498
-0.0426907
-0.032795
-0.00467336
-0.206338
-0.205537
-0.204639
-0.204847
-0.20508
-0.205332
-0.205684
-0.206093
-0.206535
-0.206998
-0.207469
-0.207928
-0.208355
-0.208723
-0.208999
-0.209141
-0.209099
-0.208813
-0.20821
-0.207213
-0.205699
-0.203655
-0.200913
-0.197479
-0.193259
-0.188255
-0.1824
-0.175802
-0.168352
-0.16034
-0.151471
-0.142343
-0.132226
-0.122204
-0.110899
-0.0997895
-0.0874557
-0.0740984
-0.0617338
-0.0431799
-0.0329073
-0.00524143
-0.206713
-0.205862
-0.204613
-0.204748
-0.204914
-0.205108
-0.205438
-0.205841
-0.206285
-0.206762
-0.207253
-0.207738
-0.208196
-0.208598
-0.208911
-0.209093
-0.209092
-0.208847
-0.208283
-0.207322
-0.205824
-0.203813
-0.201088
-0.197657
-0.193427
-0.188407
-0.182524
-0.175901
-0.16842
-0.160395
-0.151512
-0.142404
-0.132314
-0.122348
-0.111117
-0.100069
-0.0878355
-0.074487
-0.0621546
-0.0436171
-0.0329411
-0.00578543
-0.207049
-0.206079
-0.204504
-0.204569
-0.204641
-0.204766
-0.205073
-0.205471
-0.205921
-0.206411
-0.206923
-0.207435
-0.207924
-0.20836
-0.20871
-0.208931
-0.208971
-0.208767
-0.208245
-0.207322
-0.205787
-0.203865
-0.201171
-0.197754
-0.193525
-0.188501
-0.182603
-0.175967
-0.168466
-0.160436
-0.151548
-0.14246
-0.132398
-0.122479
-0.111319
-0.100312
-0.0881777
-0.0748188
-0.0625083
-0.0440017
-0.0329029
-0.00630351
-0.207275
-0.206063
-0.204282
-0.204304
-0.20425
-0.204297
-0.204581
-0.204974
-0.20543
-0.205934
-0.206466
-0.207004
-0.207522
-0.207992
-0.208378
-0.208638
-0.208719
-0.20856
-0.208083
-0.207214
-0.20588
-0.203819
-0.201153
-0.197761
-0.193548
-0.188534
-0.182635
-0.176
-0.168492
-0.160467
-0.151581
-0.142515
-0.132482
-0.1226
-0.111511
-0.100524
-0.0884876
-0.0750991
-0.062804
-0.0443382
-0.032807
-0.00679709
-0.208173
-0.205778
-0.203895
-0.203867
-0.203641
-0.203601
-0.203863
-0.204259
-0.204726
-0.205251
-0.205809
-0.206378
-0.206931
-0.207438
-0.207864
-0.208168
-0.208296
-0.208188
-0.207763
-0.206946
-0.205621
-0.203646
-0.201028
-0.197678
-0.193498
-0.188514
-0.182633
-0.176016
-0.168515
-0.160503
-0.151627
-0.142581
-0.132579
-0.122719
-0.111699
-0.100709
-0.0887686
-0.0753325
-0.063042
-0.0446338
-0.0326529
-0.00727274
-0.207967
-0.203412
-0.202534
-0.202757
-0.20247
-0.202447
-0.202763
-0.203217
-0.203739
-0.204316
-0.204928
-0.205551
-0.206158
-0.20672
-0.207199
-0.207553
-0.207728
-0.207664
-0.207282
-0.206493
-0.205196
-0.203309
-0.200744
-0.197439
-0.193294
-0.18834
-0.182479
-0.175881
-0.168392
-0.160395
-0.151537
-0.142507
-0.132549
-0.1227
-0.11176
-0.100754
-0.0889057
-0.0754411
-0.0631126
-0.0448541
-0.0323605
-0.00773007
-0.192664
-0.194687
-0.199475
-0.201046
-0.201058
-0.201173
-0.201597
-0.202145
-0.202741
-0.203377
-0.204045
-0.204721
-0.205377
-0.205984
-0.206506
-0.2069
-0.207114
-0.20709
-0.206758
-0.206046
-0.204795
-0.20281
-0.200196
-0.196859
-0.192684
-0.187701
-0.181821
-0.175207
-0.167726
-0.159734
-0.150929
-0.141923
-0.132071
-0.122244
-0.111454
-0.10045
-0.0887251
-0.075307
-0.0628569
-0.0449843
-0.0317325
-0.00828283
-0.191945
-0.19212
-0.1965
-0.198265
-0.19834
-0.198474
-0.199016
-0.199734
-0.200479
-0.201234
-0.202
-0.202762
-0.203491
-0.204155
-0.204719
-0.205142
-0.205368
-0.205336
-0.204966
-0.204167
-0.20284
-0.200937
-0.198337
-0.195004
-0.190841
-0.185884
-0.180047
-0.173491
-0.166093
-0.158188
-0.14951
-0.140601
-0.130919
-0.121163
-0.110577
-0.0995998
-0.0880478
-0.0747079
-0.0621753
-0.0447884
-0.03083
-0.00875329
-0.189095
-0.189035
-0.191916
-0.193626
-0.194111
-0.194525
-0.195276
-0.196204
-0.197145
-0.198064
-0.198969
-0.199851
-0.200683
-0.20143
-0.202059
-0.202527
-0.202781
-0.202761
-0.202391
-0.201596
-0.200287
-0.198377
-0.195778
-0.192462
-0.188336
-0.183437
-0.177679
-0.171222
-0.163948
-0.156172
-0.147656
-0.138873
-0.129382
-0.119716
-0.109333
-0.0984083
-0.0870101
-0.0738023
-0.0611879
-0.0443441
-0.029836
-0.00905048
-0.183749
-0.184501
-0.186077
-0.187431
-0.188331
-0.189185
-0.19023
-0.191395
-0.192559
-0.193683
-0.194769
-0.19581
-0.196781
-0.197648
-0.198376
-0.198924
-0.19924
-0.19927
-0.198941
-0.198186
-0.196914
-0.195041
-0.192481
-0.189227
-0.185184
-0.180391
-0.174762
-0.168449
-0.161347
-0.153734
-0.145417
-0.136786
-0.127503
-0.117946
-0.10776
-0.09692
-0.08565
-0.0726362
-0.059938
-0.0436889
-0.0287822
-0.00919418
-0.175921
-0.178083
-0.179131
-0.180105
-0.18125
-0.182536
-0.183918
-0.185334
-0.186725
-0.188066
-0.189354
-0.190578
-0.191712
-0.192724
-0.193578
-0.194234
-0.194644
-0.194756
-0.194501
-0.193816
-0.192614
-0.190835
-0.188367
-0.18522
-0.181312
-0.176675
-0.171229
-0.16511
-0.158227
-0.150821
-0.14274
-0.134292
-0.125236
-0.115819
-0.105826
-0.0951141
-0.0839602
-0.0711994
-0.0584473
-0.0428183
-0.0276897
-0.00919697
-0.166285
-0.169932
-0.171095
-0.171907
-0.173204
-0.17485
-0.176572
-0.178247
-0.179855
-0.181401
-0.182884
-0.184289
-0.185587
-0.186749
-0.187737
-0.188515
-0.189035
-0.189249
-0.18909
-0.188502
-0.187402
-0.185739
-0.183439
-0.180442
-0.176713
-0.172281
-0.167067
-0.161188
-0.15457
-0.147412
-0.1396
-0.131372
-0.122562
-0.113321
-0.103526
-0.0929893
-0.0819566
-0.0694994
-0.0567518
-0.041745
-0.0265797
-0.00908055
-0.155855
-0.160585
-0.162184
-0.163104
-0.164556
-0.166485
-0.168512
-0.170439
-0.172252
-0.173981
-0.175637
-0.177203
-0.178651
-0.17995
-0.181064
-0.181959
-0.182591
-0.182913
-0.182863
-0.182389
-0.181418
-0.17991
-0.177795
-0.174981
-0.171466
-0.167272
-0.162328
-0.156727
-0.150409
-0.143534
-0.13602
-0.128047
-0.1195
-0.110474
-0.100887
-0.0905716
-0.0796815
-0.0675659
-0.054899
-0.0405
-0.0254707
-0.00887159
-0.145194
-0.150594
-0.152727
-0.153941
-0.155594
-0.157751
-0.160031
-0.162189
-0.164193
-0.166086
-0.167891
-0.169596
-0.171173
-0.172591
-0.173817
-0.174818
-0.175553
-0.175979
-0.176039
-0.175686
-0.17485
-0.173488
-0.171523
-0.168974
-0.165704
-0.161768
-0.157114
-0.151816
-0.145819
-0.139254
-0.132057
-0.124368
-0.1161
-0.107325
-0.0979617
-0.0879059
-0.077192
-0.0654427
-0.0529394
-0.0391244
-0.0243766
-0.00859692
-0.134633
-0.140408
-0.143034
-0.144619
-0.146508
-0.148863
-0.151347
-0.153707
-0.155887
-0.157929
-0.159866
-0.161693
-0.163382
-0.164904
-0.166227
-0.167322
-0.16815
-0.168673
-0.168839
-0.168604
-0.167904
-0.166701
-0.164937
-0.162592
-0.15957
-0.155905
-0.151551
-0.146565
-0.1409
-0.13466
-0.12779
-0.120408
-0.11243
-0.103934
-0.0948149
-0.0850479
-0.0745501
-0.0631805
-0.0509193
-0.0376621
-0.0233071
-0.00828041
-0.124387
-0.130315
-0.133337
-0.135287
-0.137423
-0.139956
-0.14261
-0.145141
-0.14748
-0.149661
-0.151717
-0.153652
-0.155441
-0.157056
-0.158467
-0.159647
-0.160562
-0.161176
-0.161442
-0.16132
-0.160754
-0.159708
-0.158126
-0.155985
-0.153211
-0.149818
-0.145761
-0.141088
-0.135753
-0.129844
-0.123304
-0.11624
-0.108564
-0.100367
-0.0915129
-0.0820548
-0.071813
-0.0608295
-0.0488769
-0.0361534
-0.0222683
-0.00794108
-0.114533
-0.120474
-0.123788
-0.12606
-0.128427
-0.131119
-0.133915
-0.136589
-0.139069
-0.141376
-0.143543
-0.145576
-0.147456
-0.149156
-0.150649
-0.15191
-0.152907
-0.153608
-0.153971
-0.15396
-0.153522
-0.152627
-0.151216
-0.149274
-0.146744
-0.143615
-0.139845
-0.135478
-0.130466
-0.124886
-0.118675
-0.111935
-0.104567
-0.0966813
-0.0881134
-0.0789775
-0.0690275
-0.0584326
-0.0468401
-0.0346306
-0.0212633
-0.0075928
-0.105106
-0.110972
-0.114489
-0.117022
-0.119588
-0.122417
-0.125327
-0.12812
-0.13072
-0.133139
-0.135406
-0.137529
-0.139493
-0.141274
-0.142845
-0.144183
-0.145259
-0.146046
-0.146504
-0.1466
-0.146289
-0.145539
-0.144298
-0.142552
-0.140245
-0.137368
-0.133875
-0.129805
-0.125107
-0.119849
-0.113962
-0.107547
-0.100494
-0.0929261
-0.0846614
-0.0758566
-0.0662278
-0.0560226
-0.0448272
-0.0331168
-0.0202925
-0.00724487
-0.0961284
-0.10186
-0.105503
-0.108234
-0.110959
-0.113897
-0.116897
-0.119783
-0.122481
-0.124995
-0.127351
-0.129555
-0.131596
-0.133451
-0.135096
-0.136509
-0.137663
-0.138534
-0.139085
-0.139288
-0.139099
-0.138491
-0.137416
-0.135857
-0.133762
-0.131126
-0.127901
-0.124117
-0.119722
-0.114777
-0.10921
-0.103117
-0.0963818
-0.0891362
-0.0811887
-0.0727212
-0.0634363
-0.0536223
-0.0428483
-0.031626
-0.0193546
-0.00690296
-0.0876101
-0.0931653
-0.0968702
-0.0997425
-0.102584
-0.1056
-0.108664
-0.111618
-0.11439
-0.116982
-0.119412
-0.121687
-0.123796
-0.125718
-0.127433
-0.128918
-0.130148
-0.131101
-0.131744
-0.132052
-0.131982
-0.131512
-0.130597
-0.129218
-0.127327
-0.124923
-0.121954
-0.118445
-0.114343
-0.109702
-0.104448
-0.0986727
-0.0922578
-0.0853361
-0.0777166
-0.0695915
-0.0606669
-0.0512459
-0.0409083
-0.0301661
-0.0184476
-0.00657014
-0.0795532
-0.0849015
-0.0886175
-0.09158
-0.0944979
-0.0975607
-0.100661
-0.103658
-0.106482
-0.109132
-0.111621
-0.113954
-0.11612
-0.118103
-0.11988
-0.121432
-0.122734
-0.123767
-0.1245
-0.124909
-0.124957
-0.12462
-0.123858
-0.122654
-0.120961
-0.118778
-0.116054
-0.11281
-0.108989
-0.104644
-0.0996969
-0.0942347
-0.0881403
-0.0815435
-0.0742595
-0.0664808
-0.0579279
-0.0489019
-0.0390088
-0.0287406
-0.017569
-0.00624769
-0.0719561
-0.0770759
-0.0807608
-0.0837696
-0.0867272
-0.0898072
-0.0929179
-0.0959323
-0.0987867
-0.101474
-0.104004
-0.106381
-0.108595
-0.110628
-0.11246
-0.114072
-0.115442
-0.116551
-0.117369
-0.117876
-0.118036
-0.117829
-0.117216
-0.116179
-0.114677
-0.112706
-0.110216
-0.107226
-0.103678
-0.0996189
-0.0949723
-0.0898183
-0.0840435
-0.0777714
-0.0708278
-0.0633986
-0.0552246
-0.0465955
-0.03715
-0.0273505
-0.0167165
-0.0059359
-0.0648122
-0.0696887
-0.0733087
-0.0763262
-0.0792912
-0.082361
-0.0854576
-0.088467
-0.0913291
-0.0940344
-0.0965894
-0.0989958
-0.101243
-0.103316
-0.105193
-0.106859
-0.10829
-0.109468
-0.110368
-0.110967
-0.111236
-0.111153
-0.110681
-0.109806
-0.108486
-0.106717
-0.104453
-0.101706
-0.098422
-0.0946405
-0.0902875
-0.0854362
-0.0799788
-0.0740306
-0.0674297
-0.0603521
-0.0525612
-0.0443298
-0.0353318
-0.0259957
-0.0158886
-0.00563448
-0.0581099
-0.0627348
-0.0662628
-0.0692579
-0.0722023
-0.0752382
-0.0782986
-0.0812818
-0.0841314
-0.0868357
-0.0893984
-0.0918191
-0.0940875
-0.0961881
-0.0981016
-0.0998109
-0.101295
-0.102537
-0.103511
-0.104198
-0.104568
-0.104603
-0.104267
-0.103546
-0.1024
-0.100825
-0.0987763
-0.096264
-0.0932338
-0.0897211
-0.0856547
-0.0811004
-0.075957
-0.0703308
-0.064073
-0.0573477
-0.0499412
-0.0421075
-0.0335541
-0.0246758
-0.0150838
-0.00534298
-0.0518348
-0.0562047
-0.0596202
-0.062567
-0.0654675
-0.068449
-0.0714543
-0.0743924
-0.0772111
-0.0798969
-0.082451
-0.0848714
-0.0871476
-0.0892644
-0.0912032
-0.0929471
-0.0944763
-0.0957735
-0.0968152
-0.0975829
-0.0980483
-0.0981936
-0.0979858
-0.097411
-0.0964314
-0.0950418
-0.0931989
-0.090911
-0.0881255
-0.0848729
-0.0810854
-0.076822
-0.0719882
-0.066681
-0.0607648
-0.0543913
-0.0473681
-0.0399306
-0.0318173
-0.0233903
-0.0143012
-0.00506088
-0.0459703
-0.050086
-0.0533738
-0.0562518
-0.0590891
-0.0619995
-0.0649335
-0.0678104
-0.0705818
-0.0732333
-0.0757638
-0.07817
-0.0804412
-0.0825624
-0.0845157
-0.0862845
-0.0878495
-0.0891939
-0.0902954
-0.0911362
-0.0916894
-0.091938
-0.0918507
-0.0914139
-0.0905918
-0.0893783
-0.0877323
-0.0856594
-0.0831091
-0.0801077
-0.0765912
-0.0726119
-0.0680821
-0.06309
-0.0575123
-0.0514884
-0.0448458
-0.0378014
-0.030122
-0.022139
-0.0135402
-0.00478775
-0.0404982
-0.0443637
-0.0475132
-0.0503067
-0.0530657
-0.0558913
-0.058741
-0.0615432
-0.0642533
-0.0668566
-0.06935
-0.0717292
-0.0739834
-0.0760977
-0.0780549
-0.0798386
-0.0814301
-0.0828131
-0.0839661
-0.0848719
-0.0855051
-0.085849
-0.0858742
-0.085567
-0.0848934
-0.0838467
-0.0823882
-0.0805207
-0.0781964
-0.0754373
-0.0721833
-0.0684808
-0.0642486
-0.0595665
-0.0543225
-0.0486446
-0.0423781
-0.0357222
-0.0284692
-0.0209217
-0.0128006
-0.00452326
-0.0353994
-0.0390215
-0.0420263
-0.0447233
-0.0473924
-0.0501228
-0.0528781
-0.0555948
-0.0582321
-0.0607753
-0.0632199
-0.0655607
-0.0677867
-0.0698836
-0.0718345
-0.0736234
-0.0752322
-0.076645
-0.0778409
-0.0788035
-0.0795084
-0.0799395
-0.0800687
-0.0798826
-0.0793487
-0.0784596
-0.0771783
-0.0755065
-0.0733986
-0.0708728
-0.0678726
-0.0644389
-0.0604969
-0.0561187
-0.0512026
-0.0458655
-0.0399689
-0.0336955
-0.02686
-0.019739
-0.0120822
-0.00426718
-0.0306555
-0.0340426
-0.0368994
-0.0394917
-0.0420625
-0.0446902
-0.0473434
-0.0499663
-0.0525217
-0.0549949
-0.0573807
-0.0596732
-0.0618612
-0.063931
-0.0658662
-0.0676512
-0.0692683
-0.0707021
-0.0719325
-0.0729434
-0.0737117
-0.0742215
-0.0744461
-0.0743723
-0.0739692
-0.0732289
-0.0721146
-0.0706284
-0.068727
-0.0664251
-0.0636696
-0.0604962
-0.0568363
-0.0527547
-0.0481592
-0.0431564
-0.0376222
-0.0317238
-0.0252961
-0.0185911
-0.0113852
-0.0040194
-0.0262476
-0.0294096
-0.0321179
-0.0346003
-0.0370671
-0.0395871
-0.0421332
-0.0446562
-0.0471227
-0.0495184
-0.0518373
-0.054073
-0.0562147
-0.0582488
-0.0601597
-0.0619322
-0.0635493
-0.0649957
-0.0662523
-0.0673033
-0.0681265
-0.0687065
-0.0690179
-0.0690473
-0.0687656
-0.0681638
-0.0672078
-0.0658978
-0.064193
-0.0621052
-0.0595845
-0.0566625
-0.0532756
-0.0494824
-0.0451991
-0.0405227
-0.0353421
-0.0298099
-0.0237791
-0.0174791
-0.01071
-0.00377989
-0.0221578
-0.0251056
-0.0276669
-0.0300367
-0.0323964
-0.0348059
-0.0372419
-0.0396613
-0.042034
-0.0443463
-0.046592
-0.0487643
-0.0508525
-0.0528438
-0.0547229
-0.0564753
-0.0580845
-0.0595357
-0.0608104
-0.0618934
-0.0627634
-0.0634052
-0.0637947
-0.0639185
-0.0637488
-0.0632763
-0.062469
-0.0613255
-0.0598071
-0.0579232
-0.0556273
-0.0529468
-0.0498234
-0.0463094
-0.0423288
-0.0379699
-0.0331327
-0.0279568
-0.0223109
-0.0164038
-0.010057
-0.0035487
-0.0183687
-0.021114
-0.0235317
-0.0257884
-0.0280398
-0.0303379
-0.0326627
-0.0349765
-0.0372524
-0.0394776
-0.0416455
-0.0437492
-0.0457783
-0.0477206
-0.0495616
-0.0512872
-0.0528816
-0.0543304
-0.0556159
-0.0567232
-0.057632
-0.0583275
-0.0587866
-0.058996
-0.0589293
-0.0585769
-0.0579084
-0.0569214
-0.0555791
-0.0538889
-0.0518073
-0.0493583
-0.0464879
-0.0432431
-0.0395548
-0.0355031
-0.0309983
-0.0261674
-0.0208935
-0.0153665
-0.00942687
-0.00332598
-0.0148643
-0.0174189
-0.0196978
-0.0218425
-0.0239862
-0.0261737
-0.0283878
-0.0305958
-0.0327737
-0.0349095
-0.0369966
-0.039028
-0.040994
-0.0428827
-0.0446803
-0.0463734
-0.0479469
-0.0493869
-0.0506764
-0.0518009
-0.0527411
-0.0534825
-0.054003
-0.0542895
-0.0543168
-0.0540752
-0.0535357
-0.0526953
-0.0515189
-0.0500117
-0.0481337
-0.0459054
-0.0432771
-0.0402907
-0.0368833
-0.0331276
-0.028943
-0.024445
-0.0195294
-0.0143686
-0.00882043
-0.00311191
-0.0116295
-0.0140055
-0.0161514
-0.0181867
-0.0202247
-0.0223037
-0.0244091
-0.0265124
-0.0285924
-0.0306382
-0.032643
-0.0346001
-0.0365
-0.0383315
-0.0400818
-0.0417379
-0.0432854
-0.044711
-0.0459985
-0.0471338
-0.0480984
-0.0488783
-0.0494525
-0.0498079
-0.0499206
-0.0497805
-0.0493601
-0.0486563
-0.0476353
-0.0463009
-0.0446153
-0.0425965
-0.0401987
-0.0374591
-0.0343206
-0.0308487
-0.0269712
-0.0227929
-0.0182208
-0.0134116
-0.00823861
-0.00290675
-0.00865023
-0.0108598
-0.0128793
-0.014809
-0.0167445
-0.0187183
-0.020718
-0.022719
-0.0247028
-0.0266591
-0.0285815
-0.0304634
-0.0322957
-0.0340679
-0.0357679
-0.0373835
-0.038901
-0.0403075
-0.0415877
-0.042728
-0.0437108
-0.0445224
-0.0451429
-0.0455593
-0.0457491
-0.0457021
-0.0453922
-0.0448133
-0.043937
-0.0427647
-0.0412605
-0.0394398
-0.0372603
-0.0347554
-0.0318728
-0.0286717
-0.0250872
-0.0212144
-0.0169703
-0.0124973
-0.00768242
-0.0027108
-0.00591395
-0.00796921
-0.00986948
-0.0116981
-0.0135353
-0.0154082
-0.0173063
-0.0192085
-0.0210986
-0.0229673
-0.0248083
-0.0266153
-0.0283796
-0.0300915
-0.0317395
-0.0333122
-0.0347965
-0.0361802
-0.0374488
-0.0385891
-0.0395844
-0.0404215
-0.0410813
-0.0415514
-0.04181
-0.0418471
-0.0416376
-0.0411753
-0.0404328
-0.0394114
-0.0380773
-0.036443
-0.0344694
-0.0321862
-0.0295459
-0.0266019
-0.0232955
-0.0197131
-0.0157807
-0.0116276
-0.00715304
-0.00252443
-0.00340929
-0.00532217
-0.00711085
-0.00884388
-0.0105876
-0.0123646
-0.0141659
-0.0159737
-0.0177737
-0.0195576
-0.0213194
-0.0230528
-0.0247499
-0.0264015
-0.0279968
-0.0295251
-0.0309741
-0.0323322
-0.0335856
-0.0347217
-0.0357246
-0.0365816
-0.0372745
-0.0377912
-0.0381109
-0.0382235
-0.0381054
-0.0377502
-0.0371316
-0.0362501
-0.035074
-0.0336138
-0.0318331
-0.0297584
-0.0273462
-0.0246446
-0.0216006
-0.0182928
-0.014655
-0.0108044
-0.00665171
-0.00234804
-0.00112633
-0.00290861
-0.00459363
-0.00623694
-0.00789271
-0.00957943
-0.0112895
-0.0130079
-0.0147223
-0.0164251
-0.0181106
-0.0197729
-0.0214045
-0.0229967
-0.0245396
-0.0260231
-0.0274357
-0.0287663
-0.0300018
-0.0311302
-0.0321366
-0.0330085
-0.0337288
-0.0342855
-0.0346591
-0.0348393
-0.0348039
-0.0345463
-0.0340415
-0.0332887
-0.0322586
-0.03096
-0.029359
-0.0274787
-0.0252798
-0.0228052
-0.0200074
-0.0169574
-0.0135961
-0.0100301
-0.00617982
-0.00218208
0.000943662
-0.000719619
-0.00230916
-0.00386913
-0.00544299
-0.00704558
-0.00867055
-0.0103052
-0.0119392
-0.0135654
-0.0151785
-0.0167728
-0.0183414
-0.0198762
-0.0213679
-0.0228071
-0.0241829
-0.0254849
-0.0267007
-0.0278189
-0.0288252
-0.0297078
-0.0304504
-0.0310412
-0.0314619
-0.0317022
-0.0317411
-0.0315716
-0.0311702
-0.0305352
-0.0296392
-0.0284894
-0.0270543
-0.0253543
-0.0233531
-0.0210897
-0.0185209
-0.015711
-0.0126074
-0.00930695
-0.00573887
-0.00202705
0.00280766
0.00125198
-0.000250413
-0.00173375
-0.00323215
-0.00475719
-0.00630358
-0.00786081
-0.00941991
-0.0109747
-0.0125199
-0.0140503
-0.0155593
-0.0170394
-0.0184819
-0.0198781
-0.0212177
-0.0224908
-0.0236859
-0.024792
-0.0257955
-0.0266853
-0.0274456
-0.0280653
-0.0285268
-0.0288199
-0.0289248
-0.0288343
-0.0285263
-0.0279981
-0.027224
-0.02621
-0.0249268
-0.0233923
-0.021573
-0.019504
-0.0171462
-0.0145581
-0.0116926
-0.00863764
-0.0053305
-0.00188351
0.00447127
0.00301194
0.00158822
0.00017449
-0.00125523
-0.00270968
-0.00418444
-0.00567089
-0.00716142
-0.00865041
-0.010133
-0.0116042
-0.0130576
-0.0144864
-0.0158826
-0.0172378
-0.0185425
-0.0197874
-0.0209615
-0.0220543
-0.0230532
-0.0239471
-0.0247214
-0.0253651
-0.0258615
-0.0262007
-0.0263638
-0.0263434
-0.0261185
-0.0256861
-0.0250219
-0.0241305
-0.0229848
-0.0216004
-0.0199465
-0.0180546
-0.0158892
-0.0135036
-0.0108554
-0.00802501
-0.00495649
-0.00175207
0.00593836
0.00456423
0.00321057
0.00185914
0.000490991
-0.000900146
-0.0023106
-0.00373338
-0.00516205
-0.00659155
-0.00801729
-0.00943441
-0.0108371
-0.0122188
-0.0135721
-0.0148892
-0.0161611
-0.017379
-0.0185325
-0.0196117
-0.0206045
-0.0215004
-0.0222853
-0.0229488
-0.0234748
-0.0238536
-0.0240672
-0.0241082
-0.0239567
-0.0236089
-0.0230422
-0.02226
-0.0212371
-0.0199871
-0.0184814
-0.0167485
-0.0147561
-0.0125526
-0.0101001
-0.0074722
-0.00461884
-0.0016334
0.00721112
0.00591103
0.00461863
0.00332193
0.00200792
0.000672473
-0.000681376
-0.002048
-0.00342197
-0.00479874
-0.00617393
-0.00754289
-0.00890014
-0.0102396
-0.0115542
-0.0128367
-0.0140785
-0.0152715
-0.0164055
-0.0174714
-0.0184574
-0.0193535
-0.0201464
-0.0208258
-0.0213765
-0.021789
-0.0220461
-0.0221403
-0.0220515