/*--------------------------------*- C++ -*----------------------------------*\
  =========                 |
  \\      /  F ield         | OpenFOAM: The Open Source CFD Toolbox
   \\    /   O peration     | Website:  https://openfoam.org
    \\  /    A nd           | Version:  7
     \\/     M anipulation  |
\*---------------------------------------------------------------------------*/
FoamFile
{
    version     2.0;
    format      ascii;
    class       surfaceScalarField;
    location    "35";
    object      phi;
}
// * * * * * * * * * * * * * * * * * * * * * * * * * * * * * * * * * * * * * //

dimensions      [0 3 -1 0 0 0 0];

internalField   nonuniform List<scalar> 
12578
(
-7.27172e-06
7.97524e-06
-7.03513e-07
-2.59429e-05
2.06328e-05
-1.96163e-06
-5.41717e-05
3.14033e-05
-3.17445e-06
-9.01619e-05
4.0314e-05
-4.32382e-06
-0.000132287
4.75516e-05
-5.42602e-06
-0.000179233
5.34802e-05
-6.5344e-06
-0.000230151
5.86464e-05
-7.72877e-06
-0.000284859
6.38076e-05
-9.09983e-06
-0.000344001
6.98751e-05
-1.07327e-05
7.79859e-05
-1.2698e-05
-0.000409289
-7.17044e-06
1.51457e-05
-2.55955e-05
3.90579e-05
-5.34504e-05
5.92582e-05
-8.89389e-05
7.58025e-05
-0.000130417
8.90292e-05
-0.000176527
9.95904e-05
-0.000226354
0.000108474
-0.000279629
0.000117083
-0.000336904
0.00012715
0.000140857
-0.000399775
-6.98568e-06
2.21313e-05
-2.49584e-05
5.70306e-05
-5.21207e-05
8.64204e-05
-8.66729e-05
0.000110355
-0.000126932
0.000129289
-0.000171461
0.000144119
-0.000219212
0.000156224
-0.000269743
0.000167614
-0.000323426
0.000180833
0.000199061
-0.00038163
-6.72466e-06
2.8856e-05
-2.40528e-05
7.43587e-05
-5.02212e-05
0.000112589
-8.3422e-05
0.000143556
-0.000121914
0.000167781
-0.00016414
0.000186345
-0.000208855
0.00020094
-0.000255358
0.000214117
-0.000303755
0.000229229
0.000250344
-0.000355037
-6.39741e-06
3.52534e-05
-2.29082e-05
9.08695e-05
-4.78055e-05
0.000137486
-7.92657e-05
0.000175016
-0.000115471
0.000203986
-0.000154705
0.000225579
-0.000195462
0.000241697
-0.000236687
0.000255341
-0.000278132
0.000270674
0.000292424
-0.000320212
-6.01615e-06
4.12696e-05
-2.15603e-05
0.000106414
-4.49375e-05
0.000160863
-7.42986e-05
0.000204377
-0.000107729
0.000237416
-0.000143318
0.000261168
-0.000179234
0.000277613
-0.00021396
0.000290067
-0.000246815
0.000303529
0.000322949
-0.00027734
-5.5945e-06
4.68641e-05
-2.00485e-05
0.000120868
-4.16871e-05
0.000182502
-6.86215e-05
0.000231311
-9.88204e-05
0.000267615
-0.000130145
0.000292493
-0.000160369
0.000307837
-0.000187394
0.000317091
-0.00021002
0.000326156
0.000339433
-0.000226504
-5.14665e-06
5.20107e-05
-1.84133e-05
0.000134134
-3.81243e-05
0.000202213
-6.23316e-05
0.000255518
-8.88654e-05
0.000294149
-0.000115325
0.000318953
-0.000139023
0.000331535
-0.000157133
0.000335202
-0.000167838
0.00033686
0.000339208
-0.000167612
-4.68646e-06
5.66972e-05
-1.66932e-05
0.000146141
-3.43127e-05
0.000219832
-5.55108e-05
0.000276716
-7.7953e-05
0.000316591
-9.89409e-05
0.000339941
-0.00011526
0.000347854
-0.000123177
0.00034312
-0.000120125
0.000333808
0.000319509
-0.000100427
-4.22662e-06
6.09238e-05
-1.49219e-05
0.000156836
-3.03035e-05
0.000235214
-4.82143e-05
0.000294627
-6.61204e-05
0.000334497
-8.09854e-05
0.000354805
-8.90015e-05
0.00035587
-8.52717e-05
0.00033939
-6.61613e-05
0.000314698
0.000278937
-2.55891e-05
-3.7779e-06
6.47017e-05
-1.31254e-05
0.000166184
-2.61294e-05
0.000248218
-4.04586e-05
0.000308956
-5.33324e-05
0.000347371
-6.13257e-05
0.000362799
-6.00055e-05
0.00035455
-4.30678e-05
0.000322452
-1.62547e-06
0.000273255
0.000215317
6.19951e-05
-3.34853e-06
6.80502e-05
-1.13201e-05
0.000174156
-2.17993e-05
0.000258697
-3.22117e-05
0.000319369
-3.94594e-05
0.000354619
-3.96529e-05
0.000362992
-2.76809e-05
0.000342578
2.89126e-06
0.00029188
6.44016e-05
0.000211745
0.000117075
0.000162643
-2.94364e-06
7.09939e-05
-9.51051e-06
0.000180722
-1.72947e-05
0.000266481
-2.33857e-05
0.00032546
-2.42622e-05
0.000355495
-1.54538e-05
0.000354184
9.14187e-06
0.000317982
5.80416e-05
0.00024298
0.000143827
0.00012596
-1.7745e-05
0.000278646
-2.56479e-06
7.35587e-05
-7.68771e-06
0.000185845
-1.25669e-05
0.000271361
-1.3836e-05
0.000326729
-7.40143e-06
0.000349061
1.19624e-05
0.00033482
5.1368e-05
0.000278576
0.000121054
0.000173294
0.000237581
9.4334e-06
-0.000193875
0.000413711
-2.2094e-06
-5.82755e-06
0.000189463
-7.53427e-06
0.000273067
-3.3568e-06
0.000322552
1.15634e-05
0.000334141
4.34682e-05
0.000302915
0.000100796
0.000221248
0.0001954
7.869e-05
0.000349297
-0.000144464
-0.000415468
0.00057089
-3.88814e-06
0.000191482
-2.07488e-06
0.000271254
8.31416e-06
0.000312162
3.31669e-05
0.000309288
8.00599e-05
0.000256022
0.000159127
0.000142181
0.000283878
-4.60613e-05
0.000482801
-0.000343387
-0.000684693
0.000752026
-1.80434e-06
0.000191753
3.95884e-06
0.000265491
2.15076e-05
0.000294614
5.80284e-05
0.000272767
0.000122824
0.000191226
0.000228171
3.68338e-05
0.000389328
-0.000207218
0.000640853
-0.000594912
-0.00100038
0.000956538
5.1996e-07
1.07775e-05
0.000255233
3.66231e-05
0.000268768
8.68476e-05
0.000222543
0.00017289
0.000105184
0.000309616
-9.98926e-05
0.000514432
-0.000412034
0.000823916
-0.000904395
-0.001357
0.00118054
1.86321e-05
0.000239731
5.41345e-05
0.000233266
0.000120396
0.000156281
0.000231375
-5.79455e-06
0.000404826
-0.000273343
0.000661283
-0.000668492
0.00102948
-0.0012726
-0.00174759
0.00142008
2.78342e-05
7.45847e-05
0.000186515
0.000159493
7.13727e-05
0.000299284
-0.000145586
0.000514462
-0.000488521
0.000829385
-0.000983415
0.00125441
-0.00169762
-0.00218008
0.00168689
9.85674e-05
0.000204959
-3.50184e-05
0.000377388
-0.000318015
0.000638155
-0.000749288
0.0010126
-0.00135786
0.00149035
-0.00217536
-0.00288948
0.00219974
0.000257533
-0.000165868
0.00046609
-0.000526572
0.000774763
-0.00105796
0.00120342
-0.00178652
0.00173018
-0.00270212
-0.00358951
0.00243022
0.000317732
0.000565149
-0.000773989
0.000921869
-0.00141468
0.00139586
-0.00226052
0.00195807
-0.00326433
-0.00426145
0.00263001
0.000673306
0.00107484
-0.00181622
0.00158258
-0.00276826
0.00215646
-0.00383821
-0.00489029
0.0027853
0.00122709
0.00175305
-0.00329422
0.0023155
-0.00440066
-0.00546163
0.00288684
0.00189745
0.00242923
-0.00493243
-0.00596762
0.00293521
0.00249645
-0.00640714
0.00293597
0.00289642
0.00251937
0.00542162
0.00640827
0.00289561
0.00249596
0.00493425
0.00596913
0.0029351
0.00189732
0.0032964
0.00242877
0.0044028
0.00546359
0.00293431
0.00122724
0.00181822
0.00175298
0.00277067
0.00231508
0.00384069
0.00489276
0.00288591
0.000673594
0.000775509
0.00107504
0.00141678
0.00158257
0.00226315
0.0021561
0.00326716
0.00426448
0.00278438
0.000318032
0.000166828
0.000565444
0.000528097
0.000922088
0.00106013
0.00139588
0.00178935
0.00195775
0.00270528
0.0035931
0.00262914
0.000257796
3.59534e-05
0.000466342
0.000319551
0.000774943
0.00075153
0.00120342
0.00136088
0.00172984
0.00217886
0.00289353
0.00242941
9.87404e-05
-0.000186084
0.000205129
-7.04356e-05
0.000377526
0.000147154
0.000638213
0.000490844
0.00101248
0.00098661
0.00148988
0.00170146
0.00218441
0.002199
2.79171e-05
-0.000239681
7.46478e-05
-0.000232815
0.000159506
-0.000155294
0.000299222
7.43909e-06
0.000514289
0.000275777
0.000829035
0.000671865
0.00125369
0.00127681
0.00175199
0.00168611
1.86208e-05
-0.000255147
5.40416e-05
-0.000268236
0.000120185
-0.000221438
0.000231019
-0.000103395
0.000404301
0.000102494
0.000660556
0.00041561
0.00102843
0.000908935
0.00136157
0.00141885
4.88584e-07
-0.000191895
1.0647e-05
-0.000265305
3.63339e-05
-0.000293923
8.63514e-05
-0.000271455
0.000172155
-0.000189199
0.000308623
-3.39736e-05
0.00051317
0.000211063
0.000822322
0.000599783
0.00100526
0.00117862
-1.90625e-06
-0.000191538
3.69005e-06
-0.000270901
2.0992e-05
-0.000311225
5.7203e-05
-0.000307666
0.000121646
-0.000253642
0.000226617
-0.000138944
0.000387398
5.02821e-05
0.000638533
0.000348648
0.000690064
0.000953734
-1.90871e-06
-7.59101e-05
-4.06417e-06
-0.000189382
-2.49391e-06
-0.000272472
7.55647e-06
-0.000321275
3.19894e-05
-0.000332099
7.84041e-05
-0.000300056
0.000156957
-0.000217497
0.000281195
-7.39557e-05
0.000479611
0.000150232
0.000421527
0.000748148
-2.27181e-06
-7.36383e-05
-6.07944e-06
-0.000185575
-8.10218e-06
-0.000270449
-4.35662e-06
-0.000325021
1.0035e-05
-0.000346491
4.13346e-05
-0.000331356
9.80018e-05
-0.000274164
0.000191934
-0.000167888
0.000345168
-3.00147e-06
0.000200867
0.000565828
-2.65015e-06
-7.09881e-05
-8.01224e-06
-0.000180213
-1.32763e-05
-0.000265185
-1.50611e-05
-0.000323236
-9.25517e-06
-0.000352296
9.38491e-06
-0.000349996
4.79853e-05
-0.000312765
0.00011683
-0.000236733
0.000232539
-0.000118711
2.59542e-05
0.000407452
-3.0499e-06
-6.79382e-05
-9.90008e-06
-0.000173362
-1.81286e-05
-0.000256956
-2.48069e-05
-0.000316558
-2.63961e-05
-0.000350707
-1.84083e-05
-0.000357984
5.29417e-06
-0.000336467
5.31371e-05
-0.000284576
0.000137987
-0.00020356
-0.000107339
0.000271279
-3.47245e-06
-6.44658e-05
-1.17634e-05
-0.000165071
-2.27339e-05
-0.000245986
-3.37883e-05
-0.000305503
-4.18122e-05
-0.000342683
-4.29081e-05
-0.000356888
-3.19797e-05
-0.000347395
-2.55095e-06
-0.000314005
5.80589e-05
-0.00026417
-0.000203599
0.000154319
-3.91528e-06
-6.05505e-05
-1.36081e-05
-0.000155379
-2.71353e-05
-0.000232459
-4.21415e-05
-0.000290497
-5.58306e-05
-0.000328994
-6.47749e-05
-0.000347944
-6.45438e-05
-0.000347627
-4.88574e-05
-0.000329691
-9.93734e-06
-0.00030309
-0.000266322
5.27857e-05
-4.37258e-06
-5.61779e-05
-1.54279e-05
-0.000144323
-3.13481e-05
-0.000216538
-4.99494e-05
-0.000271896
-6.86835e-05
-0.00031026
-8.45131e-05
-0.000332114
-9.36426e-05
-0.000338497
-9.12125e-05
-0.000332121
-7.34749e-05
-0.000320828
-0.000305264
-3.45328e-05
-4.83575e-06
-5.13422e-05
-1.72053e-05
-0.000131954
-3.53617e-05
-0.000198382
-5.72427e-05
-0.000250015
-8.04998e-05
-0.000287003
-0.000102436
-0.000310178
-0.000119852
-0.00032108
-0.000129051
-0.000322923
-0.000127432
-0.000322446
-0.000322976
-0.00010972
-5.29391e-06
-4.60483e-05
-1.89142e-05
-0.000118333
-3.91436e-05
-0.000178153
-6.40057e-05
-0.000225153
-9.13175e-05
-0.000259691
-0.000118681
-0.000282815
-0.000143428
-0.000296333
-0.000162771
-0.00030358
-0.000174902
-0.000310315
-0.000321269
-0.000176609
-5.73447e-06
-4.03138e-05
-2.05213e-05
-0.000103546
-4.26441e-05
-0.00015603
-7.01863e-05
-0.00019761
-0.000101104
-0.000228773
-0.000133264
-0.000250655
-0.000164459
-0.000265138
-0.00019263
-0.00027541
-0.000216608
-0.000286337
-0.000302996
-0.000234882
-6.14389e-06
-3.41699e-05
-2.19894e-05
-8.7701e-05
-4.58021e-05
-0.000132217
-7.57071e-05
-0.000167706
-0.000109779
-0.000194702
-0.000146111
-0.000214323
-0.000182893
-0.000228356
-0.000218645
-0.000239658
-0.000252726
-0.000252256
-0.00027088
-0.000284842
-6.50847e-06
-2.76614e-05
-2.32796e-05
-7.09298e-05
-4.85512e-05
-0.000106946
-8.04766e-05
-0.00013578
-0.000117229
-0.00015795
-0.000157095
-0.000174456
-0.000198591
-0.00018686
-0.000240692
-0.000197557
-0.000283194
-0.000209754
-0.00022745
-0.000326625
-6.81521e-06
-2.08462e-05
-2.43546e-05
-5.33904e-05
-5.08254e-05
-8.04749e-05
-8.44006e-05
-0.000102205
-0.000123332
-0.000119019
-0.000166065
-0.000131723
-0.000211373
-0.000141552
-0.000258581
-0.000150349
-0.000307831
-0.000160504
-0.000175088
-0.000360193
-7.05263e-06
-1.37936e-05
-2.5181e-05
-3.5262e-05
-5.25653e-05
-5.30906e-05
-8.73918e-05
-6.73783e-05
-0.000127972
-7.84383e-05
-0.000172871
-8.68231e-05
-0.000221055
-9.33682e-05
-0.000272102
-9.93026e-05
-0.000326411
-0.000106194
-0.000116099
-0.000385401
-7.21153e-06
-6.58206e-06
-2.57319e-05
-1.67416e-05
-5.37225e-05
-2.51e-05
-8.93783e-05
-3.17226e-05
-0.000131051
-3.67652e-05
-0.000177387
-4.04872e-05
-0.000227478
-4.32773e-05
-0.000281067
-4.57135e-05
-0.000338724
-4.8538e-05
-5.27499e-05
-0.000402072
-7.28558e-06
-2.59888e-05
-5.42633e-05
-9.03097e-05
-0.000132501
-0.000179523
-0.000230529
-0.000285342
-0.000344613
-0.00041006
-0.000440424
4.2079e-05
-1.0944e-05
-0.000471935
4.36606e-05
-1.21497e-05
-0.000503458
4.49864e-05
-1.34639e-05
-0.000534904
4.63066e-05
-1.48601e-05
-0.000566214
4.7603e-05
-1.62928e-05
-0.000597345
4.88304e-05
-1.76991e-05
-0.000628246
4.98928e-05
-1.89921e-05
-0.000658853
5.06625e-05
-2.00556e-05
-0.000689097
5.09799e-05
-2.07359e-05
-0.00071891
5.06531e-05
-2.08405e-05
-0.000748228
4.94515e-05
-2.01336e-05
-0.000776994
4.71026e-05
-1.83365e-05
-0.000805156
4.3292e-05
-1.51293e-05
-0.000832666
3.76683e-05
-1.01585e-05
-0.000859472
2.98534e-05
-3.04812e-06
-0.000885512
1.94661e-05
6.57437e-06
-0.000910699
6.12365e-06
1.90638e-05
-0.000934939
-1.04305e-05
3.46697e-05
-0.000958076
-3.04036e-05
5.35413e-05
-0.000979924
-5.3731e-05
7.55789e-05
-0.00100024
-8.00264e-05
0.000100344
-0.00101878
-0.000108393
0.000126926
-0.00103519
-0.000137659
0.000154076
-0.00104906
-0.000166213
0.000180077
-0.00105982
-0.000191876
0.000202644
-0.00106686
-0.000211978
0.000219017
-0.00106939
-0.000223538
0.000226059
-0.00106655
-0.000223316
0.00022048
-0.00105728
-0.000208484
0.000199213
-0.00104065
-0.000176398
0.000159774
-0.00101528
-0.000126409
0.000101032
-0.000980549
-5.82923e-05
2.3563e-05
-0.000934629
2.38646e-05
-6.97844e-05
-0.000877829
0.00011748
-0.00017428
-0.000807518
0.00020955
-0.000279861
-0.000726032
0.000297464
-0.00037895
-0.000628825
0.000353048
-0.000450255
-0.000522655
0.00038609
-0.00049226
-0.00039536
0.000342971
-0.000470266
-0.00026899
0.000269478
-0.000395848
-0.000104238
6.55723e-05
-0.000230324
-0.000204451
4.09855e-05
-0.000430258
7.25615e-05
-0.000461151
7.45536e-05
-0.000492102
7.59377e-05
-0.000523021
7.72255e-05
-0.000553835
7.84174e-05
-0.000584494
7.94893e-05
-0.000614941
8.03401e-05
-0.000645112
8.08335e-05
-0.000674937
8.08048e-05
-0.000704349
8.00647e-05
-0.000733285
7.83876e-05
-0.00076169
7.55074e-05
-0.000789513
7.1115e-05
-0.000816704
6.48601e-05
-0.000843213
5.63617e-05
-0.000868972
4.52253e-05
-0.000893914
3.10661e-05
-0.000917908
1.35631e-05
-0.000940812
-7.49917e-06
-0.000962438
-3.21057e-05
-0.000982529
-5.99347e-05
-0.00100085
-9.00718e-05
-0.00101709
-0.000121424
-0.0010308
-0.000152495
-0.00104148
-0.000181201
-0.00104849
-0.000204965
-0.00105107
-0.00022096
-0.00104838
-0.000226003
-0.00103935
-0.000217519
-0.00102303
-0.000192716
-0.000997969
-0.00015147
-0.000963533
-9.27283e-05
-0.000917689
-2.19798e-05
-0.000860708
6.04985e-05
-0.000789777
0.000138619
-0.000707175
0.000214863
-0.00060821
0.000254082
-0.000499824
0.000277704
-0.000369734
0.000212881
-0.000240857
0.000140601
-7.39921e-05
-0.000101293
-0.000366926
-0.000410893
0.000101825
-0.00044063
0.000104291
-0.000470512
0.00010582
-0.000500442
0.000107155
-0.000530322
0.000108297
-0.000560081
0.000109249
-0.000589652
0.000109911
-0.000618963
0.000110144
-0.000647941
0.000109783
-0.000676517
0.000108641
-0.000704629
0.0001065
-0.000732223
0.000103101
-0.000759247
9.81394e-05
-0.000785653
9.12656e-05
-0.000811385
8.20942e-05
-0.00083638
7.02196e-05
-0.000860554
5.52404e-05
-0.000883805
3.68143e-05
-0.000905961
1.46564e-05
-0.000926812
-1.12543e-05
-0.000946124
-4.06225e-05
-0.000963657
-7.25394e-05
-0.000979119
-0.000105962
-0.000992088
-0.000139526
-0.00100205
-0.000171238
-0.00100841
-0.000198603
-0.00101042
-0.000218958
-0.00100725
-0.000229169
-0.000997832
-0.000226936
-0.000981224
-0.000209324
-0.000955922
-0.000176771
-0.000921204
-0.000127447
-0.000875113
-6.80706e-05
-0.000817537
2.92273e-06
-0.000745711
6.67928e-05
-0.000661864
0.000131016
-0.000561081
0.000153299
-0.000450663
0.000167286
-0.000317956
8.0174e-05
-0.000187065
9.70973e-06
-1.66581e-05
-0.000271699
-0.000525358
-0.000382555
0.000129342
-0.000410628
0.000132365
-0.000438968
0.000134159
-0.000467468
0.000135656
-0.000495993
0.000136821
-0.000524442
0.000137698
-0.000552729
0.000138198
-0.000580772
0.000138187
-0.00060849
0.000137501
-0.000635813
0.000135963
-0.000662678
0.000133365
-0.00068903
0.000129453
-0.000714818
0.000123928
-0.000739993
0.00011644
-0.000764498
0.000106599
-0.000788265
9.39868e-05
-0.000811208
7.81839e-05
-0.00083321
5.88155e-05
-0.000854151
3.55981e-05
-0.000873728
8.3223e-06
-0.000891747
-2.26038e-05
-0.000907952
-5.6334e-05
-0.000922095
-9.18187e-05
-0.000933752
-0.000127868
-0.000942427
-0.000162563
-0.000947547
-0.000193483
-0.000948376
-0.000218129
-0.000944133
-0.000233411
-0.000933742
-0.000237327
-0.000916274
-0.000226792
-0.000890195
-0.00020285
-0.000854748
-0.000162894
-0.000807822
-0.000114997
-0.000749574
-5.53259e-05
-0.000676536
-6.24525e-06
-0.000591395
4.58755e-05
-0.000488815
5.07192e-05
-0.000376634
5.51053e-05
-0.000241563
-5.48969e-05
-0.000109571
-0.000122282
5.86156e-05
-0.000439886
-0.000684425
-0.000345524
0.000154654
-0.000371476
0.000158317
-0.000397839
0.000160522
-0.000424504
0.00016232
-0.000451283
0.0001636
-0.000478039
0.000164455
-0.00050466
0.000164819
-0.000531051
0.000164578
-0.000557121
0.000163571
-0.000582799
0.00016164
-0.000608019
0.000158586
-0.000632729
0.000154163
-0.000656877
0.000148076
-0.000680411
0.000139974
-0.000703274
0.000129462
-0.000725394
0.000116107
-0.000746681
9.94707e-05
-0.000767015
7.91493e-05
-0.00078623
5.48135e-05
-0.000804181
2.62733e-05
-0.000820406
-6.37856e-06
-0.000834819
-4.1921e-05
-0.000847157
-7.94813e-05
-0.000857004
-0.000118021
-0.000863875
-0.000155693
-0.000867226
-0.000190132
-0.000866345
-0.00021901
-0.000860484
-0.000239272
-0.000848584
-0.000249227
-0.000829739
-0.000245637
-0.000802399
-0.00023019
-0.000765794
-0.000199499
-0.000717727
-0.000163063
-0.000658239
-0.000114814
-0.000584237
-8.0248e-05
-0.000497646
-4.07155e-05
-0.000393398
-5.35281e-05
-0.000279804
-5.84888e-05
-0.000142693
-0.000192008
-1.23161e-05
-0.000252659
0.000155324
-0.000607526
-0.000843249
-0.000300082
0.000177395
-0.000323525
0.00018176
-0.000347535
0.000184533
-0.000372007
0.000186791
-0.000396693
0.000188287
-0.000421412
0.000189174
-0.000446019
0.000189426
-0.000470407
0.000188966
-0.000494477
0.000187641
-0.000518151
0.000185314
-0.000541367
0.000181802
-0.000564071
0.000176868
-0.000586215
0.000170219
-0.000607744
0.000161503
-0.000628598
0.000150316
-0.000648703
0.000136212
-0.000667963
0.000118731
-0.000686253
9.74392e-05
-0.000703406
7.19661e-05
-0.000719245
4.21122e-05
-0.000733378
7.75454e-06
-0.000745591
-2.97079e-05
-0.00075571
-6.93619e-05
-0.000763329
-0.000110403
-0.000767965
-0.000151056
-0.000769103
-0.000188994
-0.000766056
-0.000222057
-0.000758116
-0.000247211
-0.000744248
-0.000263095
-0.000723581
-0.000266304
-0.000694568
-0.000259204
-0.000656431
-0.000237635
-0.000606963
-0.000212532
-0.00054615
-0.000175626
-0.000470758
-0.00015564
-0.000383029
-0.000128445
-0.000277278
-0.000159279
-0.000162688
-0.000173078
-2.27865e-05
-0.00033191
0.000110205
-0.00038565
0.000271643
-0.000768965
-0.00100038
-0.000246426
0.000197317
-0.000267073
0.000202407
-0.000288437
0.000205896
-0.000310425
0.000208779
-0.000332729
0.00021059
-0.000355116
0.000211561
-0.000377406
0.000211716
-0.000399485
0.000211044
-0.000421241
0.000209397
-0.000442597
0.000206671
-0.000463493
0.000202698
-0.000483877
0.000197252
-0.000503702
0.000190044
-0.000522913
0.000180715
-0.000541448
0.000168851
-0.00055923
0.000153994
-0.000576156
0.000135657
-0.000592097
0.00011338
-0.000606883
8.6752e-05
-0.00062027
5.55e-05
-0.00063206
1.95444e-05
-0.000641736
-2.00321e-05
-0.000649326
-6.17716e-05
-0.000654392
-0.000105337
-0.000656459
-0.00014899
-0.000655037
-0.000190416
-0.000649468
-0.000227627
-0.000639086
-0.000257594
-0.000622885
-0.000279296
-0.00060004
-0.000289149
-0.000569027
-0.000290217
-0.000529071
-0.00027759
-0.000477985
-0.000263618
-0.000415718
-0.000237894
-0.000338975
-0.000232383
-0.000250145
-0.000217275
-0.000143149
-0.000266275
-2.8398e-05
-0.000287829
0.000111178
-0.000471486
0.000247241
-0.000521712
0.000404298
-0.000926022
-0.00115498
-0.000184584
0.00021429
-0.000202284
0.000220107
-0.000220813
0.000224424
-0.000240114
0.000228081
-0.000259821
0.000230297
-0.000279647
0.000231388
-0.000299374
0.000231443
-0.000318888
0.000230558
-0.000338071
0.00022858
-0.000356847
0.000225446
-0.00037516
0.000221011
-0.000392965
0.000215057
-0.000410215
0.000207293
-0.000426856
0.000197357
-0.000442825
0.00018482
-0.000458041
0.000169209
-0.000472396
0.000150013
-0.000485754
0.000126737
-0.000497937
9.89352e-05
-0.000508715
6.62784e-05
-0.000517813
2.86422e-05
-0.000524802
-1.30433e-05
-0.000529648
-5.69259e-05
-0.000531937
-0.000103048
-0.000531204
-0.000149722
-0.000526986
-0.000194634
-0.000518647
-0.000235965
-0.000505566
-0.000270674
-0.000486777
-0.000298085
-0.000461498
-0.000314428
-0.000428253
-0.000323463
-0.000386274
-0.000319569
-0.000333429
-0.000316463
-0.000269637
-0.000301686
-0.000191595
-0.000310424
-0.00010183
-0.00030704
6.42664e-06
-0.000374532
0.000121592
-0.000402994
0.000260131
-0.000610025
0.000397288
-0.000658869
0.000550347
-0.00107908
-0.00130648
-0.000114305
0.000228168
-0.000129049
0.000234851
-0.000144722
0.000240097
-0.000161248
0.000244608
-0.000178239
0.000247287
-0.000195357
0.000248506
-0.000212344
0.00024843
-0.000229102
0.000247317
-0.000245514
0.000244992
-0.000261511
0.000241443
-0.000277045
0.000236545
-0.000292076
0.000230088
-0.000306563
0.00022178
-0.000320454
0.000211247
-0.000333681
0.000198048
-0.000346161
0.000181689
-0.000357782
0.000161634
-0.000368402
0.000137357
-0.000377837
0.00010837
-0.000385851
7.42926e-05
-0.000392138
3.49289e-05
-0.00039631
-8.87152e-06
-0.000398299
-5.49371e-05
-0.000397692
-0.000103654
-0.00039404
-0.000153375
-0.000386899
-0.000201776
-0.000375659
-0.000247204
-0.00035974
-0.000286594
-0.000338217
-0.000319608
-0.000310356
-0.000342289
-0.000274749
-0.000359069
-0.000230633
-0.000363685
-0.000175967
-0.000371129
-0.00011064
-0.000367013
-3.14108e-05
-0.000389654
5.91038e-05
-0.000397555
0.000167675
-0.000483104
0.000283149
-0.000518468
0.000420748
-0.000747624
0.000557915
-0.000796035
0.000707034
-0.0012282
-0.00145446
-3.42139e-05
0.000236793
-4.68679e-05
0.000247505
-5.99208e-05
0.00025315
-7.37177e-05
0.000258405
-8.79879e-05
0.000261558
-0.000102364
0.000262882
-0.000116501
0.000262567
-0.000130398
0.000261213
-0.000143922
0.000258516
-0.000157019
0.000254541
-0.000169657
0.000249182
-0.000181803
0.000242235
-0.000193421
0.000233398
-0.00020446
0.000222287
-0.000214853
0.00020844
-0.00022451
0.000191346
-0.000233317
0.000170441
-0.000241127
0.000145167
-0.00024775
0.000114993
-0.000252938
7.94805e-05
-0.000256363
3.83538e-05
-0.00025771
-7.52364e-06
-0.000256822
-5.58258e-05
-0.000253304
-0.000107172
-0.00024672
-0.000159959
-0.000236643
-0.000211852
-0.000222487
-0.00026136
-0.000203704
-0.000305377
-0.00017942
-0.000343891
-0.000148936
-0.000372773
-0.000110948
-0.000397057
-6.46642e-05
-0.000409969
-8.37464e-06
-0.000427419
5.86224e-05
-0.00043401
0.000138975
-0.000470006
0.000229948
-0.000488528
0.000338833
-0.000591988
0.000453872
-0.000633507
0.000590163
-0.000883916
0.000726625
-0.000932498
0.000871812
-0.00137339
-0.0015986
5.53538e-05
0.000243434
4.49044e-05
0.000257955
3.42306e-05
0.000263824
2.29649e-05
0.00026967
1.1326e-05
0.000273196
-1.19741e-07
0.000274328
-1.16592e-05
0.000274106
-2.27154e-05
0.00027227
-3.3343e-05
0.000269143
-4.35264e-05
0.000264724
-5.32528e-05
0.000258909
-6.25037e-05
0.000251485
-7.12476e-05
0.000242142
-7.94353e-05
0.000230474
-8.69971e-05
0.000216002
-9.38408e-05
0.00019819
-9.98481e-05
0.000176448
-0.000104868
0.000150186
-0.000108707
0.000118832
-0.000111105
8.18784e-05
-0.000111709
3.89586e-05
-0.000110316
-8.9169e-06
-0.000106628
-5.95142e-05
-0.000100286
-0.000113513
-9.08665e-05
-0.000169379
-7.79499e-05
-0.000224769
-6.09753e-05
-0.000278335
-3.94196e-05
-0.000326933
-1.25298e-05
-0.000370781
2.05798e-05
-0.000405882
6.08901e-05
-0.000437368
0.000109288
-0.000458367
0.000167508
-0.000485638
0.000235631
-0.000502134
0.000316956
-0.000551331
0.000408203
-0.000579776
0.000517077
-0.000700862
0.000631357
-0.000747787
0.000765901
-0.00101846
0.000901098
-0.00106769
0.00104236
-0.00151465
-0.00173869
0.000156531
0.000249546
0.000147731
0.000266755
0.00013887
0.000272685
0.000129614
0.000278926
0.000120236
0.000282575
0.000111101
0.000283463
0.000102454
0.000282754
9.42021e-05
0.000280521
8.63946e-05
0.000276951
7.90323e-05
0.000272086
7.21135e-05
0.000265828
6.56486e-05
0.00025795
5.96671e-05
0.000248123
5.42195e-05
0.000235922
4.93785e-05
0.000220843
4.52395e-05
0.000202329
4.19234e-05
0.000179765
3.95815e-05
0.000152528
3.84032e-05
0.000120011
3.86631e-05
8.16185e-05
4.07228e-05
3.68989e-05
4.46951e-05
-1.28891e-05
5.09982e-05
-6.58174e-05
5.99752e-05
-0.00012249
7.20394e-05
-0.000181443
8.76011e-05
-0.000240331
0.000107201
-0.000297934
0.000131348
-0.00035108
0.000160808
-0.000400242
0.000196237
-0.000441311
0.000238737
-0.000479867
0.000289046
-0.000508676
0.000348857
-0.000545449
0.000418147
-0.000571424
0.000500241
-0.000633425
0.000591557
-0.000671091
0.000700092
-0.000809397
0.000813375
-0.00086107
0.000945763
-0.00115085
0.00107923
-0.00120117
0.00121662
-0.00165204
-0.00187457
0.000272393
0.000255799
0.000263681
0.000275466
0.000255671
0.000280695
0.000247835
0.000286762
0.000240317
0.000290093
0.000233411
0.000290369
0.000227135
0.000289029
0.00022138
0.000286276
0.000216105
0.000282226
0.000211274
0.000276917
0.000206868
0.000270234
0.000202891
0.000261927
0.000199374
0.000251641
0.00019637
0.000238925
0.000193959
0.000223254
0.000192242
0.000204047
0.000191344
0.000180662
0.00019142
0.000152452
0.00019266
0.000118771
0.00019534
7.89381e-05
0.000199841
3.23981e-05
0.000206171
-1.92191e-05
0.000214861
-7.45072e-05
0.000226217
-0.000133846
0.000240652
-0.000195878
0.000258569
-0.000258248
0.0002805
-0.000319865
0.000306947
-0.000377526
0.000338626
-0.000431921
0.000376181
-0.000478867
0.000420612
-0.000524297
0.000472638
-0.000560703
0.000533829
-0.00060664
0.000604086
-0.000641681
0.000686732
-0.000716071
0.000777923
-0.000762282
0.000885798
-0.000917273
0.000997907
-0.000973178
0.0011278
-0.00128074
0.00125917
-0.00133254
0.00139276
-0.00178564
-0.00200617
0.000405077
0.000264434
0.000394961
0.000285582
0.000386743
0.000288913
0.000379579
0.000293925
0.000373377
0.000296295
0.000368209
0.000295537
0.000363872
0.000293366
0.000360144
0.000290004
0.000356917
0.000285453
0.000354123
0.000279711
0.000351733
0.000272623
0.000349757
0.000263904
0.000348231
0.000253167
0.000347219
0.000239937
0.000346807
0.000223666
0.000347101
0.000203753
0.000348231
0.000179532
0.000350349
0.000150334
0.000353638
0.000115482
0.000358372
7.4204e-05
0.000364935
2.58353e-05
0.000373255
-2.75387e-05
0.000383943
-8.51959e-05
0.000397294
-0.000147197
0.000413714
-0.000212299
0.000433608
-0.000278142
0.000457491
-0.000343748
0.00048587
-0.000405905
0.000519409
-0.00046546
0.00055876
-0.000518218
0.000604807
-0.000570345
0.00065827
-0.000614166
0.000720583
-0.000668953
0.000791572
-0.00071267
0.000874525
-0.000799023
0.000965415
-0.000853172
0.00107232
-0.00102418
0.00118313
-0.00108399
0.00131026
-0.00140786
0.00143924
-0.00146152
0.00156915
-0.00191555
-0.00213346
0.000556966
0.000278359
0.000543957
0.000298591
0.000534603
0.000298268
0.000527398
0.00030113
0.000521901
0.000301793
0.000517846
0.000299592
0.000514767
0.000296445
0.000512329
0.000292442
0.000510375
0.000287407
0.000508832
0.000281254
0.000507684
0.000273771
0.000506956
0.000264632
0.000506703
0.00025342
0.000506999
0.000239641
0.000507941
0.000222724
0.000509638
0.000202055
0.000512225
0.000176945
0.000515844
0.000146714
0.000520669
0.000110657
0.000526972
6.79009e-05
0.000535108
1.76992e-05
0.00054494
-3.73702e-05
0.000557158
-9.7414e-05
0.00057204
-0.000162079
0.000589984
-0.000230244
0.000611402
-0.000299559
0.000636788
-0.000369135
0.000666668
-0.000435785
0.000701648
-0.000500439
0.000742404
-0.000558974
0.000789707
-0.000617647
0.000844278
-0.000668736
0.000907418
-0.000732093
0.000978883
-0.000784135
0.00106189
-0.000882025
0.00115232
-0.000943603
0.00125798
-0.00112985
0.0013674
-0.0011934
0.00149158
-0.00153205
0.00161796
-0.0015879
0.00174435
-0.00204194
-0.0022565
0.00072985
0.000300535
0.00071311
0.000315331
0.000702222
0.000309155
0.000694486
0.000308866
0.000689044
0.000307235
0.000685245
0.000303391
0.000682403
0.000299287
0.000680135
0.00029471
0.000678298
0.000289245
0.000676858
0.000282694
0.000675841
0.000274789
0.000675303
0.00026517
0.000675323
0.0002534
0.000675993
0.000238971
0.000677414
0.000221303
0.000679702
0.000199768
0.000682984
0.000173663
0.000687396
0.000142302
0.000693097
0.000104957
0.000700312
6.06862e-05
0.000709444
8.567e-06
0.000720182
-4.8108e-05
0.000733363
-0.000110596
0.000749229
-0.000177945
0.000768165
-0.000249179
0.00079059
-0.000321985
0.000816979
-0.000395524
0.000847882
-0.000466688
0.000883846
-0.000536404
0.000925583
-0.00060071
0.000973751
-0.000665816
0.00102908
-0.000724061
0.00109273
-0.00079575
0.00116441
-0.000855816
0.00124721
-0.000964819
0.00133704
-0.00103344
0.00144123
-0.00123404
0.0015492
-0.00130138
0.00167035
-0.0016532
0.00179401
-0.00171156
0.00191707
-0.002165
-0.00237538
0.000924724
0.00033235
0.000905159
0.000334896
0.000893322
0.000320992
0.000884826
0.000317362
0.000878588
0.000313472
0.000873728
0.000308251
0.000869565
0.000303451
0.000865824
0.00029845
0.00086247
0.000292599
0.000859561
0.000285602
0.00085719
0.00027716
0.000855457
0.000266903
0.000854465
0.000254393
0.000854315
0.000239121
0.000855112
0.000220506
0.000856966
0.000197914
0.000859994
0.000170635
0.000864315
0.000137981
0.000870075
9.91973e-05
0.000877416
5.33448e-05
0.000886781
-7.97475e-07
0.000897759
-5.90869e-05
0.000911251
-0.000124088
0.000927481
-0.000194175
0.000946814
-0.000268512
0.000969685
-0.000344855
0.000996541
-0.00042238
0.00102797
-0.000498112
0.00106445
-0.000572884
0.00110673
-0.000642993
0.00115537
-0.000714461
0.0012111
-0.000779787
0.00127497
-0.000859618
0.00134662
-0.000927469
0.00142897
-0.00104717
0.0015181
-0.00112257
0.00162063
-0.00133657
0.00172716
-0.0014079
0.00184526
-0.0017713
0.00196619
-0.00183248
0.00208614
-0.00228495
-0.00249029
0.00114205
0.000370835
0.00112402
0.000352926
0.00111302
0.000331988
0.00110341
0.000326976
0.00109479
0.000322092
0.00108667
0.000316368
0.00107883
0.000311293
0.00107131
0.000305975
0.00106425
0.00029965
0.00105786
0.000291996