/*--------------------------------*- C++ -*----------------------------------*\
  =========                 |
  \\      /  F ield         | OpenFOAM: The Open Source CFD Toolbox
   \\    /   O peration     | Website:  https://openfoam.org
    \\  /    A nd           | Version:  7
     \\/     M anipulation  |
\*---------------------------------------------------------------------------*/
FoamFile
{
    version     2.0;
    format      ascii;
    class       volVectorField;
    location    "35";
    object      U;
}
// * * * * * * * * * * * * * * * * * * * * * * * * * * * * * * * * * * * * * //

dimensions      [0 1 -1 0 0 0 0];

internalField   nonuniform List<vector> 
6386
(
(-0.00119623 0.00123829 2.70384e-21)
(-0.00664831 0.00291046 9.49463e-21)
(-0.0168628 0.0039772 -3.53138e-21)
(-0.0289734 0.00458042 2.49831e-21)
(-0.0419169 0.00483584 -1.81916e-20)
(-0.0548471 0.00485985 -7.81601e-21)
(-0.0671868 0.00476254 -1.66504e-21)
(-0.0786906 0.00464344 -2.4486e-20)
(-0.0893789 0.00458388 3.18635e-21)
(-0.0994714 0.00465287 1.50229e-20)
(-0.00135032 0.00328641 -2.47504e-20)
(-0.00696132 0.00763467 -5.08743e-21)
(-0.0171946 0.0102989 1.51421e-20)
(-0.0292315 0.0116918 -5.67294e-20)
(-0.0420267 0.0121342 -7.05431e-21)
(-0.0547459 0.0119395 1.04313e-20)
(-0.0668169 0.0114004 3.7382e-21)
(-0.0779966 0.0107853 6.78654e-20)
(-0.0883028 0.0103199 -4.90793e-20)
(-0.0979192 0.0102048 8.10494e-21)
(-0.00164894 0.00528088 4.7579e-20)
(-0.00757181 0.0122445 -6.4674e-21)
(-0.0178497 0.0164756 2.59589e-20)
(-0.0297513 0.0186439 5.81448e-20)
(-0.0422649 0.0192675 1.18942e-19)
(-0.0545783 0.0188498 -8.59683e-20)
(-0.0661283 0.0178622 2.25306e-22)
(-0.0766761 0.0167406 -6.60896e-20)
(-0.086236 0.0158594 8.40126e-20)
(-0.0949146 0.0155568 -7.97516e-20)
(-0.00208467 0.00719102 5.39364e-21)
(-0.00846647 0.0166732 -3.89301e-21)
(-0.018815 0.0224214 2.91469e-20)
(-0.0305217 0.0253411 -4.18797e-20)
(-0.0426228 0.0261351 -3.17556e-20)
(-0.0543372 0.025487 1.51276e-19)
(-0.0651144 0.0240393 -4.63898e-20)
(-0.0747203 0.0223933 -1.33271e-19)
(-0.0831687 0.0210793 -4.3869e-20)
(-0.0904307 0.0205834 5.91477e-20)
(-0.00264717 0.00898928 9.11202e-21)
(-0.00962624 0.0208594 3.7964e-20)
(-0.0200709 0.0280556 -8.09766e-20)
(-0.0315253 0.0316923 9.47977e-20)
(-0.0430851 0.0326408 6.25203e-20)
(-0.0540091 0.0317511 -2.3311e-19)
(-0.063761 0.0298263 1.97876e-19)
(-0.0721099 0.0276302 1.18964e-19)
(-0.0790791 0.0258589 4.06312e-20)
(-0.0844136 0.0251595 -1.31105e-20)
(-0.00332367 0.0106522 -6.60777e-20)
(-0.011027 0.0247487 -2.96087e-20)
(-0.0215919 0.0333045 2.54529e-20)
(-0.0327375 0.0376124 -2.10378e-19)
(-0.0436287 0.0386936 1.02198e-19)
(-0.0535709 0.0375472 -2.59985e-20)
(-0.0620416 0.0351231 1.46386e-21)
(-0.0688085 0.0323426 2.28644e-20)
(-0.0739262 0.0300804 -5.08281e-20)
(-0.0767675 0.0291601 -2.83507e-20)
(-0.00409968 0.0121611 1.45396e-19)
(-0.0126401 0.0282947 -1.6425e-20)
(-0.0233458 0.0381025 1.00167e-19)
(-0.0341253 0.043024 3.4226e-20)
(-0.0442192 0.0442093 -2.93732e-20)
(-0.0529847 0.0427874 -2.32691e-20)
(-0.059911 0.0398372 -1.61002e-20)
(-0.0647518 0.0364294 -4.44579e-20)
(-0.0676388 0.0336316 2.41848e-20)
(-0.0673328 0.0324611 1.87316e-19)
(-0.00495972 0.0135022 -1.54622e-19)
(-0.0144336 0.0314597 9.97069e-20)
(-0.0252939 0.0423932 -1.83566e-19)
(-0.0356453 0.0478579 2.1437e-20)
(-0.0448073 0.0491121 5.17676e-20)
(-0.0521921 0.0473929 1.90002e-19)
(-0.0572959 0.0438864 -8.82155e-20)
(-0.0598347 0.039802 1.47861e-19)
(-0.0601026 0.0364112 -1.00021e-19)
(-0.0558587 0.0349456 -1.29263e-19)
(-0.005888 0.0146669 1.27956e-19)
(-0.0163723 0.0342151 -6.12623e-20)
(-0.0273903 0.0461298 -1.50647e-19)
(-0.0372413 0.0520541 1.38342e-20)
(-0.045324 0.0533353 -2.58416e-19)
(-0.0511061 0.0512956 -1.55687e-20)
(-0.0540831 0.0472029 1.1433e-20)
(-0.0538909 0.0423896 -7.40345e-20)
(-0.0511376 0.0383329 1.71393e-19)
(-0.041992 0.0365508 6.84262e-20)
(-0.00686906 0.0156514 -9.98977e-20)
(-0.0184187 0.0365408 -1.5365e-19)
(-0.0295811 0.0492744 3.88531e-19)
(-0.0388419 0.0555617 1.42563e-19)
(-0.0456751 0.0568222 4.58307e-20)
(-0.0496015 0.0544401 9.96593e-20)
(-0.0501052 0.049736 -1.12076e-19)
(-0.0466678 0.0441403 1.76876e-20)
(-0.0404226 0.0392751 -2.8045e-19)
(-0.0253347 0.0373823 2.59676e-20)
(-0.00788823 0.0164561 2.70252e-20)
(-0.020533 0.0384245 7.52067e-20)
(-0.0318036 0.0517982 -5.09243e-19)
(-0.0403571 0.0583388 -7.08457e-20)
(-0.0457351 0.0595263 6.99676e-20)
(-0.047504 0.0567859 -3.25878e-19)
(-0.045129 0.0514602 -1.03925e-20)
(-0.0378398 0.045038 -7.31841e-21)
(-0.0273222 0.038985 -1.03311e-19)
(-0.00540791 0.0376092 1.54694e-20)
(-0.00893197 0.017085 -2.75015e-20)
(-0.022673 0.0398608 1.34712e-19)
(-0.0339843 0.0536803 3.3772e-19)
(-0.0416742 0.0603522 -1.63033e-19)
(-0.0453392 0.0614113 1.23431e-20)
(-0.044577 0.0583096 -1.24233e-19)
(-0.0388301 0.0523868 -3.14119e-20)
(-0.0271007 0.0451784 2.93475e-19)
(-0.0111099 0.0376442 2.37859e-19)
(0.0190831 0.0371064 -2.9769e-20)
(-0.00998798 0.0175447 2.94408e-20)
(-0.0247938 0.0408491 5.76609e-20)
(-0.0360376 0.0549063 -3.02125e-19)
(-0.042654 0.061576 1.1862e-19)
(-0.0442761 0.0624499 1.25191e-19)
(-0.0405053 0.0590015 4.32835e-19)
(-0.0307112 0.0525558 2.32442e-19)
(-0.0137827 0.0446395 -1.159e-19)
(0.00876589 0.0356495 -3.05152e-20)
(0.0495618 0.035959 -1.48527e-19)
(-0.011045 0.0178433 2.00725e-19)
(-0.0268467 0.041393 -2.97113e-19)
(-0.0378628 0.0554676 4.49149e-19)
(-0.043127 0.0619915 -1.56385e-19)
(-0.0422826 0.0626229 -1.55925e-19)
(-0.0349008 0.0588596 -4.84546e-19)
(-0.0202154 0.0520062 -3.15993e-19)
(0.00303237 0.0434932 1.74075e-19)
(0.0334678 0.03314 2.58293e-19)
(0.0873433 0.0349112 2.66082e-19)
(-0.0120923 0.0179898 -1.76518e-19)
(-0.0287772 0.0414984 -7.44522e-20)
(-0.0393419 0.0553609 1.01798e-20)
(-0.0428885 0.0615882 1.94916e-20)
(-0.0390363 0.0619219 4.04449e-19)
(-0.027279 0.0578987 1.57719e-20)
(-0.00665253 0.0508244 3.07872e-19)
(0.0242889 0.0419876 -2.74097e-19)
(0.0645202 0.030302 -5.31263e-19)
(0.133814 0.0348724 -2.54972e-19)
(-0.0305234 0.0411725 4.58471e-19)
(-0.0403349 0.0545885 7.14919e-21)
(-0.0416939 0.0603663 -2.43269e-19)
(-0.0341507 0.0603522 1.49607e-19)
(-0.0170605 0.056149 -2.52219e-19)
(0.0108178 0.0491125 -5.19153e-20)
(0.0510532 0.0403718 1.29176e-19)
(0.103667 0.0275729 1.62737e-19)
(0.189995 0.0368513 1.25326e-19)
(-0.0320117 0.0404223 -2.26917e-19)
(-0.0406767 0.0531608 -2.0706e-19)
(-0.0392532 0.0583406 -2.8551e-20)
(-0.0271704 0.0579409 1.41383e-19)
(-0.00357208 0.0536676 4.76281e-19)
(0.0331562 0.0470049 3.88122e-19)
(0.0844849 0.0388771 5.66312e-20)
(0.1528 0.0257093 4.68214e-19)
(0.25579 0.0418689 2.07788e-19)
(-0.0331523 0.039255 4.14893e-19)
(-0.0401713 0.0510988 1.03113e-19)
(-0.035225 0.0555453 4.12029e-19)
(-0.0175661 0.0547483 -1.51361e-19)
(0.013951 0.0505555 -4.69016e-19)
(0.0614139 0.0446847 -2.35895e-19)
(0.125795 0.0377048 -2.66322e-19)
(0.213719 0.0260013 -5.68748e-19)
(0.329123 0.0508198 -6.88141e-20)
(-0.0385823 0.0484309 -2.79166e-19)
(-0.029212 0.0520419 -1.80714e-19)
(-0.00473318 0.0508824 -7.17357e-20)
(0.0363544 0.0469792 -1.82423e-20)
(0.096682 0.0423997 7.28573e-20)
(0.17627 0.0370353 1.1694e-19)
(0.287727 0.0303426 1.98149e-19)
(0.406169 0.0632596 -3.31318e-19)
(-0.0356342 0.0451986 1.44857e-19)
(-0.0207565 0.0479286 2.36594e-19)
(0.0120023 0.0465126 -1.54738e-19)
(0.064535 0.0431939 3.72854e-19)
(0.139978 0.0404786 -1.26409e-19)
(0.237177 0.0371808 -6.26043e-20)
(0.374737 0.0402461 1.00681e-20)
(0.484651 0.0731368 1.06234e-19)
(-0.00934545 0.0433437 -1.74989e-19)
(0.0333668 0.0418805 1.40144e-19)
(0.0993904 0.0395641 -1.24057e-19)
(0.19209 0.0393623 5.1915e-19)
(0.309204 0.0388837 -1.36179e-19)
(0.470978 0.0542766 2.78279e-19)
(0.570254 0.070628 -1.3713e-19)
(0.0601094 0.0373025 -3.04927e-19)
(0.141751 0.0365725 -4.0273e-19)
(0.253495 0.0396395 -3.96137e-19)
(0.391862 0.0433363 5.39457e-20)
(0.568669 0.066759 1.93287e-19)
(0.691171 0.0713018 -5.13004e-20)
(0.0929558 0.0331635 5.73088e-19)
(0.192274 0.0347939 4.29003e-19)
(0.324255 0.0419941 8.38943e-20)
(0.483241 0.051448 -2.47601e-21)
(0.66902 0.0795871 -5.12154e-20)
(0.80982 0.0866631 7.42485e-19)
(0.251291 0.0348422 -4.93133e-19)
(0.403759 0.0470864 2.05308e-19)
(0.580322 0.0632839 9.40895e-20)
(0.769555 0.0945949 -6.39803e-19)
(0.915057 0.106255 -1.11388e-19)
(0.490463 0.0554094 -2.11494e-19)
(0.679442 0.0783784 2.25464e-19)
(0.865482 0.111722 1.52481e-20)
(1.00584 0.126509 -1.14696e-19)
(0.776577 0.096017 7.8029e-20)
(0.952825 0.130103 6.80272e-20)
(1.0801 0.146097 -5.91288e-20)
(1.02887 0.148767 1.06753e-19)
(1.13852 0.164145 3.03559e-19)
(1.18276 0.180395 -1.19752e-19)
(1.09262 -0.166743 -7.50777e-20)
(1.1828 -0.180172 -4.73516e-19)
(1.02905 -0.148558 -7.67271e-20)
(1.13859 -0.163889 4.76322e-19)
(0.776872 -0.09583 -3.85534e-19)
(0.953042 -0.12987 3.05946e-19)
(1.08021 -0.145806 -1.21536e-19)
(0.490798 -0.055264 -5.98758e-20)
(0.679773 -0.0781733 6.72296e-20)
(0.865742 -0.111464 -4.77379e-20)
(1.006 -0.126179 -2.94616e-20)
(0.251593 -0.0347455 -1.52903e-19)
(0.404109 -0.0469279 2.17661e-19)
(0.580684 -0.0630567 2.73234e-19)
(0.769858 -0.0943068 -5.77592e-19)
(0.915272 -0.105884 -2.18467e-19)
(0.0931849 -0.0331145 -1.51444e-19)
(0.192574 -0.034686 5.74445e-19)
(0.324612 -0.0418148 -6.58806e-20)
(0.483627 -0.0511907 6.59079e-21)
(0.669358 -0.0792602 2.32841e-19)
(0.810097 -0.0862461 3.74743e-19)
(0.0603231 -0.0372405 -4.44297e-19)
(0.142038 -0.0364412 -2.48068e-19)
(0.253845 -0.0394268 -4.55414e-19)
(0.392256 -0.0430348 -1.18641e-19)
(0.569027 -0.0663791 2.45617e-19)
(0.691498 -0.0708253 -3.91177e-20)
(-0.00922706 -0.0433225 6.34123e-20)
(0.0335547 -0.0417908 -4.29504e-20)
(0.0996481 -0.0393924 6.45844e-20)
(0.192413 -0.0390978 5.81351e-19)
(0.309582 -0.0385183 -7.00684e-20)
(0.471338 -0.0538236 -1.23834e-20)
(0.570593 -0.0700806 -1.24146e-19)
(-0.0356001 -0.0452154 2.42524e-19)
(-0.0206655 -0.0478792 -9.24883e-20)
(0.0121532 -0.046377 6.4137e-20)
(0.0647465 -0.0429608 3.85532e-19)
(0.14025 -0.0401398 -3.6639e-19)
(0.237507 -0.0367277 2.67571e-19)
(0.375075 -0.0396946 -2.77373e-19)
(0.484948 -0.0725481 1.18487e-19)
(-0.0385678 -0.0484251 -4.1254e-19)
(-0.0291533 -0.0519475 -1.97891e-19)
(-0.00463024 -0.0506803 1.15284e-20)
(0.0365018 -0.0466613 -3.80411e-20)
(0.0968772 -0.0419611 1.6688e-19)
(0.176517 -0.0364694 -5.47312e-20)
(0.287998 -0.0296644 2.51974e-19)
(0.406392 -0.0625946 -3.20981e-19)
(-0.0331815 -0.03929 -1.3282e-19)
(-0.0401757 -0.0510561 4.49369e-19)
(-0.0352017 -0.0553876 1.94546e-19)
(-0.0175197 -0.0544586 5.96147e-20)
(0.0140188 -0.0501291 -5.02666e-19)
(0.0615077 -0.0441206 -3.83089e-19)
(0.125923 -0.0370006 -2.5895e-19)
(0.213871 -0.0251719 -5.08082e-19)
(0.329234 -0.05003 -2.45372e-19)
(-0.0320442 -0.0404348 -3.32732e-19)
(-0.0406976 -0.053066 -1.04978e-19)
(-0.0392664 -0.0581011 4.79416e-20)
(-0.0271857 -0.057543 -4.07474e-20)
(-0.00359452 -0.0531109 6.33311e-19)
(0.0331306 -0.0462922 3.2373e-19)
(0.0844669 -0.0380118 1.68209e-19)
(0.15279 -0.0247075 3.11651e-19)
(0.255746 -0.0409081 1.02573e-19)
(-0.0131495 -0.0180303 -6.50126e-20)
(-0.0305548 -0.0411504 4.3163e-19)
(-0.040369 -0.0544259 -2.84781e-20)
(-0.0417422 -0.0600276 -1.67596e-19)
(-0.0342285 -0.0598279 8.01996e-20)
(-0.0171774 -0.0554434 -1.0149e-19)
(0.0106635 -0.0482325 -2.63815e-19)
(0.0508721 -0.0393274 1.03042e-19)
(0.103464 -0.0263821 3.18814e-19)
(0.189755 -0.03568 1.45243e-20)
(-0.012117 -0.0180138 -8.38707e-20)
(-0.028803 -0.0414294 -1.45231e-19)
(-0.0393851 -0.0551154 -1.49679e-19)
(-0.0429681 -0.0611345 8.44019e-20)
(-0.0391734 -0.0612559 2.94745e-19)
(-0.0274877 -0.0570299 3.04796e-19)
(-0.0069351 -0.0497635 1.06766e-19)
(0.0239406 -0.0407523 -3.50207e-19)
(0.0641107 -0.0289142 -2.94494e-19)
(0.133351 -0.0334619 -3.14102e-19)
(-0.0110616 -0.0178475 2.45132e-19)
(-0.0268631 -0.0412652 -3.07713e-19)
(-0.0379106 -0.0551255 2.03164e-19)
(-0.0432325 -0.0614095 1.79027e-19)
(-0.0424722 -0.0618039 -3.9829e-19)
(-0.0351924 -0.0578184 -3.46512e-19)
(-0.0206168 -0.0507568 -4.16111e-19)
(0.00252501 -0.0420586 1.5429e-19)
(0.0328585 -0.0315515 1.5977e-19)
(0.0866578 -0.033243 4.44718e-19)
(-0.00999482 -0.017523 -1.75383e-19)
(-0.0247979 -0.0406513 7.38821e-20)
(-0.0360856 -0.0544559 -2.33559e-19)
(-0.0427789 -0.0608557 1.88836e-19)
(-0.0445086 -0.0614702 2.79707e-20)
(-0.0408666 -0.0577836 5.37574e-19)
(-0.0312149 -0.0511178 2.52127e-19)
(-0.0144284 -0.0430003 -1.32419e-19)
(0.0079759 -0.033873 -5.39961e-20)
(0.0486809 -0.0340144 4.08339e-21)
(-0.00892813 -0.0170319 -7.72423e-20)
(-0.0226629 -0.0395834 1.93431e-19)
(-0.0340286 -0.0531124 2.44932e-19)
(-0.0418115 -0.0594869 -2.60711e-20)
(-0.0456033 -0.0602674 -2.40099e-19)
(-0.044992 -0.0569139 -2.33201e-21)
(-0.0394113 -0.0507615 7.79562e-20)
(-0.0278637 -0.0433353 1.53854e-19)
(-0.0120417 -0.0356944 2.89521e-19)
(0.0180581 -0.034882 -8.32937e-21)
(-0.00787369 -0.0163668 -2.76631e-20)
(-0.0205083 -0.0380601 1.38743e-20)
(-0.0318412 -0.0511066 -3.78715e-19)
(-0.0404999 -0.0573253 -1.47468e-19)
(-0.0460187 -0.0582184 5.37053e-20)
(-0.0479534 -0.0552155 -3.46146e-19)
(-0.0457612 -0.0496507 1.69635e-19)
(-0.038693 -0.0429927 -2.24608e-19)
(-0.0283018 -0.0367883 -1.01819e-19)
(-0.00655916 -0.0351841 1.56604e-19)
(-0.00684469 -0.0155224 -7.44546e-20)
(-0.0183802 -0.0360842 -1.18264e-19)
(-0.0296102 -0.0484561 3.99909e-19)
(-0.0389841 -0.0544003 5.89521e-20)
(-0.0459662 -0.0553544 2.61599e-19)
(-0.0500662 -0.0527024 -2.94457e-20)
(-0.0507605 -0.0477535 -5.36688e-20)
(-0.0475435 -0.0419163 -6.92374e-20)
(-0.0414315 -0.0368162 -2.70721e-19)
(-0.0266406 -0.0347829 -6.08455e-20)
(-0.00585546 -0.014496 9.57769e-20)
(-0.0163222 -0.0336642 -1.33366e-19)
(-0.02741 -0.0451853 -1.84111e-20)
(-0.0373774 -0.0507487 -3.74576e-20)
(-0.0456115 -0.051715 -2.47315e-19)
(-0.0515685 -0.0494011 -5.91746e-22)
(-0.0547366 -0.0450605 -7.03246e-20)
(-0.0547571 -0.040005 3.74398e-20)
(-0.0521726 -0.0356985 1.67692e-19)
(-0.0433345 -0.0337511 4.96442e-20)
(-0.00492128 -0.0132887 -1.76259e-19)
(-0.014375 -0.0308152 1.43217e-19)
(-0.0253047 -0.0413263 -1.77864e-19)
(-0.0357712 -0.0464158 9.05453e-21)
(-0.0450814 -0.0473494 9.92096e-21)
(-0.0526361 -0.0453542 2.28807e-19)
(-0.0579248 -0.0415982 -4.56349e-20)
(-0.0606655 -0.0372698 -1.22382e-20)
(-0.0611198 -0.0336259 6.09634e-20)
(-0.0571579 -0.031946 -2.81654e-19)
(-0.00405805 -0.0119059 1.88358e-19)
(-0.0125769 -0.0275604 -1.04398e-19)
(-0.0233488 -0.0369202 1.05591e-19)
(-0.034238 -0.0414551 5.90022e-20)
(-0.0444717 -0.0423167 2.30974e-20)
(-0.0533962 -0.040619 -5.48052e-20)
(-0.0604949 -0.0374188 -7.44706e-20)
(-0.065522 -0.0337645 -8.09466e-20)
(-0.0685944 -0.0307077 1.44903e-19)
(-0.0685407 -0.0292868 1.0555e-19)
(-0.0032818 -0.0103578 -4.91679e-20)
(-0.0109634 -0.0239312 2.53932e-20)
(-0.0215889 -0.032017 1.46976e-20)
(-0.0328348 -0.0359297 -1.89799e-19)
(-0.0438526 -0.0366858 3.79108e-20)
(-0.0539379 -0.0352651 3.77013e-20)
(-0.0625632 -0.0325914 -7.87134e-20)
(-0.0694959 -0.0295619 4.13068e-20)
(-0.0747855 -0.0270343 -3.32809e-20)
(-0.0778468 -0.0258389 -6.8904e-20)
(-0.00260802 -0.00865966 -4.00254e-20)
(-0.00956685 -0.0199679 1.49246e-20)
(-0.0200642 -0.0266759 -3.19143e-20)
(-0.0316057 -0.0299109 1.03547e-19)
(-0.0432749 -0.0305344 -2.23627e-20)
(-0.054322 -0.0293724 -1.5994e-19)
(-0.064206 -0.027199 1.01525e-19)
(-0.0726962 -0.024752 1.75197e-19)
(-0.0798151 -0.0227095 5.68452e-20)
(-0.0853341 -0.0217175 -1.57163e-21)
(-0.00205097 -0.00683144 -1.17573e-20)
(-0.00841535 -0.0157194 4.15762e-20)
(-0.0188068 -0.0209648 -8.2386e-20)
(-0.0305845 -0.0234784 3.05663e-20)
(-0.0427743 -0.0239481 -5.09483e-20)
(-0.054588 -0.0230299 1.29474e-19)
(-0.0654716 -0.0213347 -6.94503e-20)
(-0.0751907 -0.0194364 -6.28744e-20)
(-0.0837607 -0.0178465 -1.0068e-19)
(-0.0911689 -0.0170458 9.35407e-20)
(-0.00162304 -0.00489778 4.40708e-20)
(-0.00753252 -0.0112422 -2.14154e-20)
(-0.0178422 -0.0149596 3.72285e-20)
(-0.0297963 -0.0167187 5.06572e-20)
(-0.0423752 -0.0170189 1.13774e-19)
(-0.0547614 -0.0163331 -8.54691e-20)
(-0.0663892 -0.0150993 2.25083e-20)
(-0.0770197 -0.0137243 -7.10755e-20)
(-0.0866689 -0.0125636 6.74514e-20)
(-0.0954535 -0.011948 -6.12449e-20)
(-0.00133403 -0.00288711 -1.45049e-20)
(-0.0069366 -0.00659907 4.99315e-21)
(-0.0171894 -0.00874232 5.78743e-21)
(-0.0292585 -0.00972421 -4.23743e-20)
(-0.0420937 -0.00984418 -2.29097e-20)
(-0.0548573 -0.00938283 2.3956e-20)
(-0.0669757 -0.00859831 3.86702e-21)
(-0.0782058 -0.00772924 7.49113e-20)
(-0.0885664 -0.00698204 -5.76221e-20)
(-0.098247 -0.00654887 -1.89119e-20)
(-0.00119068 -0.000830732 -2.45042e-21)
(-0.00663987 -0.00185796 7.80701e-21)
(-0.0168609 -0.0024001 -4.87761e-21)
(-0.0289823 -0.00259149 3.77366e-21)
(-0.0419393 -0.00252489 -1.80799e-20)
(-0.0548845 -0.00228315 -4.37747e-21)
(-0.0672402 -0.0019408 -5.71918e-21)
(-0.0787609 -0.00156743 -1.82551e-20)
(-0.0894675 -0.00122486 -1.32253e-21)
(-0.0995814 -0.000973479 1.98023e-20)
(-0.108346 0.0049017 -9.40524e-22)
(-0.116544 0.00498763 3.73939e-21)
(-0.124736 0.00505061 7.90683e-23)
(-0.132938 0.00511038 -3.88813e-21)
(-0.141139 0.00516198 4.49299e-21)
(-0.149325 0.0051974 -1.78335e-22)
(-0.157486 0.00520419 -7.66501e-22)
(-0.165609 0.00516725 -8.34966e-22)
(-0.173676 0.00506887 7.13589e-22)
(-0.181671 0.00488924 1.58733e-21)
(-0.189577 0.00460624 -1.69131e-21)
(-0.19738 0.00419592 -4.70819e-22)
(-0.205066 0.00363322 5.21849e-22)
(-0.212624 0.00289315 3.37607e-22)
(-0.220042 0.00195243 -3.60116e-22)
(-0.227306 0.000791805 7.64524e-23)
(-0.2344 -0.000600488 -1.52039e-21)
(-0.2413 -0.00223088 7.63376e-22)
(-0.247977 -0.00408272 6.85392e-22)
(-0.254387 -0.00612087 -9.9992e-22)
(-0.260473 -0.00828263 1.73554e-21)
(-0.266174 -0.0104689 -4.0331e-23)
(-0.271417 -0.0125647 -2.35435e-21)
(-0.2761 -0.0144318 1.5243e-21)
(-0.280091 -0.0159049 7.7657e-22)
(-0.283236 -0.0168041 -1.34527e-21)
(-0.285332 -0.0169494 4.54978e-22)
(-0.286172 -0.0161733 8.18757e-22)
(-0.28545 -0.0143576 5.60521e-23)
(-0.282953 -0.0114318 -5.79377e-22)
(-0.278206 -0.0074513 6.42938e-22)
(-0.271156 -0.00254478 1.13232e-21)
(-0.261044 0.00296563 -5.85102e-23)
(-0.248198 0.0087859 -7.52189e-22)
(-0.231541 0.0142104 2.01053e-22)
(-0.211575 0.0189667 3.29058e-22)
(-0.188309 0.0217662 -2.76366e-22)
(-0.158679 0.0230027 3.1237e-22)
(-0.13259 0.020593 -3.76205e-22)
(-0.084794 0.0162823 -3.48146e-22)
(-0.069491 0.00702534 -7.7117e-23)
(0.0163885 -0.00562049 2.33012e-24)
(-0.106483 0.0106413 -2.68202e-20)
(-0.114552 0.0106105 1.15287e-20)
(-0.122586 0.0105004 2.72921e-21)
(-0.130639 0.0103781 1.0421e-20)
(-0.138702 0.010244 -5.97447e-21)
(-0.146754 0.0100939 9.65633e-22)
(-0.154784 0.00991432 -6.38024e-21)
(-0.162778 0.00968925 -1.75022e-21)
(-0.170717 0.0094007 -1.54393e-21)
(-0.178584 0.00902966 -2.0163e-21)
(-0.186363 0.0085552 1.48176e-20)
(-0.194038 0.00795464 -1.93478e-20)
(-0.201597 0.00720389 3.34626e-21)
(-0.209027 0.00627846 1.27939e-20)
(-0.216316 0.00515496 -1.12003e-20)
(-0.22345 0.00381367 -1.07793e-22)
(-0.230414 0.00224134 9.33827e-21)
(-0.237184 0.000430574 1.97105e-21)
(-0.243727 -0.0016094 -7.45913e-21)
(-0.250003 -0.00385036 -1.16676e-21)
(-0.255954 -0.0062224 5.28405e-21)
(-0.261525 -0.00863033 -8.60893e-22)
(-0.266649 -0.0109637 9.13521e-22)
(-0.271229 -0.0130913 1.08857e-22)
(-0.275141 -0.0148532 -3.03815e-21)
(-0.278238 -0.0160731 3.04031e-23)
(-0.280323 -0.0165788 -5.83665e-23)
(-0.281194 -0.0162019 2.04415e-21)
(-0.280543 -0.0148364 -8.11553e-22)
(-0.278157 -0.0123954 1.92181e-21)
(-0.273538 -0.0089621 2.21599e-22)
(-0.266627 -0.00459784 -3.14424e-22)
(-0.256604 0.000309859 1.00137e-22)
(-0.243796 0.00551909 1.31148e-21)
(-0.227016 0.0102364 -1.01949e-21)
(-0.206837 0.0144791 1.44698e-22)
(-0.183079 0.0165488 -4.37174e-22)
(-0.152879 0.017464 -6.86362e-22)
(-0.125942 0.0141495 2.70961e-22)
(-0.0772904 0.0100817 -1.44066e-22)
(-0.0611789 -0.000776968 1.55338e-22)
(0.0246685 -0.0130901 -5.83881e-24)
(-0.102883 0.0161956 1.90177e-20)
(-0.110708 0.0160585 -3.46567e-20)
(-0.118444 0.0157928 2.16843e-20)
(-0.126214 0.0155033 4.78385e-21)
(-0.134012 0.0151945 3.79265e-21)
(-0.141807 0.014867 -1.7048e-20)
(-0.149585 0.0145078 1.01527e-20)
(-0.157326 0.0141002 -1.50326e-20)
(-0.165013 0.0136265 3.60342e-20)
(-0.172626 0.0130689 -2.43233e-20)
(-0.180148 0.0124077 1.26596e-20)
(-0.187564 0.0116214 -3.22121e-21)
(-0.194861 0.010687 2.92434e-21)
(-0.202025 0.00958017 -3.23094e-21)
(-0.209044 0.00827752 -1.08293e-20)
(-0.215903 0.0067581 5.66726e-21)
(-0.222585 0.0050066 -8.08334e-21)
(-0.229069 0.00301903 3.97248e-21)
(-0.235324 0.000798757 -2.41527e-21)
(-0.241302 -0.00163746 -2.16089e-21)
(-0.246946 -0.00422567 4.78001e-21)
(-0.252207 -0.00685433 7.46927e-22)
(-0.257027 -0.00942232 -1.86789e-22)
(-0.261314 -0.0118069 -3.43956e-21)
(-0.264949 -0.0138526 7.61089e-21)
(-0.267794 -0.0153869 -1.80411e-21)
(-0.269657 -0.0162456 -1.09548e-21)
(-0.270348 -0.0162595 2.35499e-21)
(-0.269551 -0.0153365 -3.94388e-21)
(-0.267065 -0.0133735 -2.62983e-21)
(-0.262361 -0.010485 4.16696e-21)
(-0.255389 -0.00667263 -4.44861e-21)
(-0.245267 -0.0023911 9.23984e-23)
(-0.232358 0.00228229 6.49319e-22)
(-0.21529 0.00622604 1.97886e-21)
(-0.194815 0.00991429 6.9341e-22)
(-0.170468 0.0112225 1.02188e-21)
(-0.139688 0.0117998 9.51477e-22)
(-0.111924 0.0075588 -2.10708e-23)
(-0.0624816 0.00378057 8.61152e-22)
(-0.0455723 -0.00873995 1.50811e-22)
(0.0397478 -0.0204512 -3.43136e-23)
(-0.0975279 0.0214565 1.17965e-21)
(-0.105005 0.021228 -1.33031e-20)
(-0.112309 0.020834 2.45917e-20)
(-0.119668 0.0204009 -6.4812e-21)
(-0.127081 0.019934 -1.3531e-20)
(-0.134502 0.0194414 3.0174e-20)
(-0.141908 0.0189114 -1.357e-20)
(-0.14928 0.0183287 -2.64385e-20)
(-0.156594 0.0176763 6.91434e-21)
(-0.16383 0.0169378 1.14043e-21)
(-0.170971 0.0160953 -6.07512e-21)
(-0.178 0.0151287 1.92398e-20)
(-0.184905 0.0140156 5.21963e-21)
(-0.191671 0.0127321 -7.29294e-21)
(-0.198284 0.0112545 -2.60178e-22)
(-0.20473 0.00956088 -1.034e-20)
(-0.21099 0.00763395 2.12271e-20)
(-0.21704 0.00546762 -1.00255e-20)
(-0.222855 0.00306838 -1.20702e-20)
(-0.228385 0.000457218 8.04189e-21)
(-0.233564 -0.00235254 5.279e-21)
(-0.238347 -0.00520366 -1.17653e-21)
(-0.24269 -0.00800332 7.28875e-21)
(-0.246506 -0.0106412 -6.61026e-21)
(-0.249678 -0.012966 -1.07485e-21)
(-0.252079 -0.0148079 -2.87221e-21)
(-0.253523 -0.0160116 1.20282e-20)
(-0.25383 -0.016407 -7.73898e-21)
(-0.252683 -0.0159175 -3.84513e-21)
(-0.249896 -0.0144241 4.78173e-21)
(-0.244905 -0.0120753 -3.16764e-21)
(-0.237695 -0.00881768 1.74685e-21)
(-0.227272 -0.00519984 -9.28933e-22)
(-0.214135 -0.00106609 5.06169e-21)
(-0.196655 0.00223341 -4.59133e-21)
(-0.175818 0.00527501 7.83202e-22)
(-0.150809 0.00579299 -2.41271e-21)
(-0.119471 0.00602436 -1.35453e-21)
(-0.0909327 0.000815821 -1.0444e-21)
(-0.0408301 -0.00266463 -1.02441e-21)
(-0.0231126 -0.0167798 3.29323e-22)
(0.0612267 -0.0277572 1.75156e-23)
(-0.0903797 0.0263266 8.27942e-21)
(-0.0974183 0.0260235 3.14142e-20)
(-0.104171 0.025537 -1.22387e-20)
(-0.111004 0.0249914 -5.11536e-20)
(-0.117921 0.0243882 6.12374e-20)
(-0.124855 0.0237458 -3.31071e-21)
(-0.13178 0.0230565 -1.92831e-20)
(-0.138668 0.0223077 1.76103e-20)
(-0.145495 0.021484 -2.10393e-20)
(-0.152238 0.0205715 1.81724e-20)
(-0.158879 0.0195542 -2.88762e-22)
(-0.165402 0.0184135 -1.54301e-20)
(-0.171792 0.0171277 -5.69621e-21)
(-0.178036 0.0156733 6.60392e-21)
(-0.184118 0.0140258 2.12646e-20)
(-0.190023 0.0121625 -3.38927e-21)
(-0.19573 0.0100645 -2.70618e-20)
(-0.201215 0.00772214 1.81629e-20)
(-0.206447 0.00514022 -1.8729e-20)
(-0.211393 0.00234576 5.45941e-21)
(-0.215969 -0.00064911 -5.77063e-21)
(-0.220121 -0.00373367 6.56098e-21)
(-0.223831 -0.0067631 8.68469e-21)
(-0.227015 -0.00965094 7.23902e-21)
(-0.229558 -0.0122498 -1.4296e-20)
(-0.231343 -0.0143925 -1.20438e-21)
(-0.232189 -0.0159329 5.98856e-21)
(-0.231933 -0.0166996 4.97582e-21)
(-0.230248 -0.0166331 -1.10425e-20)
(-0.226979 -0.0155984 -3.14628e-21)
(-0.221517 -0.0137811 -1.91811e-21)
(-0.213908 -0.0110707 2.32269e-21)
(-0.203025 -0.00810521 -1.03257e-21)
(-0.189519 -0.00460516 -4.19046e-21)
(-0.171519 -0.00198039 -1.83025e-21)
(-0.150317 0.000532377 6.03644e-22)
(-0.124596 0.000229615 -1.29514e-21)
(-0.0927512 0.000119144 1.097e-21)
(-0.0635295 -0.00610459 -1.30661e-22)
(-0.0129381 -0.00916971 2.06171e-21)
(0.00554904 -0.0247815 -9.73629e-22)
(0.0885217 -0.035096 2.34754e-23)
(-0.0813627 0.0307257 9.35793e-21)
(-0.0878994 0.0303612 -9.46876e-20)
(-0.0939989 0.0298246 4.05581e-20)
(-0.100203 0.0292038 -2.01806e-21)
(-0.106526 0.0284901 3.84887e-20)
(-0.112874 0.0277161 -1.67197e-20)
(-0.119214 0.0268804 1.67578e-21)
(-0.125515 0.025976 -3.49543e-20)
(-0.131747 0.0249895 4.10876e-20)
(-0.137889 0.023911 -1.46654e-21)
(-0.14392 0.0227265 -1.56486e-20)
(-0.149826 0.0214191 -8.67853e-21)
(-0.15559 0.019968 1.06674e-20)
(-0.1612 0.0183493 6.83548e-21)
(-0.166638 0.0165381 2.14087e-20)
(-0.171887 0.0145107 -3.15889e-20)
(-0.176925 0.0122466 -4.71261e-21)
(-0.181727 0.00973337 3.53137e-21)
(-0.186259 0.00697105 -4.63907e-21)
(-0.190489 0.00398286 9.65292e-21)
(-0.194339 0.000826678 8.11426e-21)
(-0.197743 -0.00249147 1.30966e-21)
(-0.200683 -0.00574958 -2.28693e-20)
(-0.203099 -0.00888351 3.7564e-21)
(-0.20487 -0.0117516 1.56977e-20)
(-0.205893 -0.0141879 -8.39931e-21)
(-0.205988 -0.0160561 -6.12595e-21)
(-0.205013 -0.0171828 1.26707e-20)
(-0.202631 -0.0175274 -1.16475e-20)
(-0.198727 -0.0169382 1.44832e-20)
(-0.192635 -0.0156401 6.22112e-21)
(-0.184494 -0.0134656 -4.58881e-21)
(-0.173016 -0.0111392 -7.71737e-23)
(-0.15907 -0.00825284 -1.04105e-21)
(-0.140433 -0.00644439 -5.68414e-22)
(-0.118849 -0.00439654 4.69049e-21)
(-0.0924366 -0.00552014 3.14228e-21)
(-0.0601654 -0.00593534 -1.64688e-21)
(-0.0303548 -0.0132072 2.70698e-21)
(0.0204982 -0.0156964 -2.15042e-21)
(0.03963 -0.0326329 -6.75094e-22)
(0.120954 -0.0424236 -1.58821e-23)
(-0.0703439 0.0345995 2.36934e-20)
(-0.0763549 0.0341733 -3.33647e-20)
(-0.0817211 0.033633 -3.18203e-20)
(-0.0872159 0.0329783 -6.08268e-21)
(-0.092863 0.0321824 6.20495e-20)
(-0.0985397 0.0312966 -8.94764e-20)
(-0.104204 0.0303283 4.6357e-20)
(-0.109822 0.0292799 2.61538e-20)
(-0.115365 0.0281403 6.97446e-21)
(-0.120807 0.0269047 -3.14727e-20)
(-0.12613 0.025562 2.78054e-20)
(-0.131319 0.0240967 -2.08084e-20)
(-0.136359 0.0224887 5.20027e-21)
(-0.141234 0.0207141 8.61307e-21)
(-0.145929 0.0187471 3.3624e-21)
(-0.150423 0.0165625 -4.77784e-20)
(-0.154694 0.0141383 2.32896e-20)
(-0.158713 0.01146 1.31332e-20)
(-0.162445 0.00852445 -2.63401e-20)
(-0.165854 0.00535022 1.28088e-20)
(-0.168878 0.0019961 1.66425e-20)
(-0.171434 -0.00151607 4.68465e-21)
(-0.173496 -0.00499996 -1.65902e-21)
(-0.175034 -0.00837563 8.25451e-22)
(-0.175921 -0.0115078 2.69707e-21)
(-0.176065 -0.0142302 1.30409e-21)
(-0.175288 -0.0164168 4.39272e-21)
(-0.173473 -0.0178916 -1.04225e-20)
(-0.170266 -0.0186337 2.9558e-22)
(-0.165605 -0.0184744 -7.12232e-21)
(-0.158758 -0.0176799 8.56357e-21)
(-0.149983 -0.0160261 -6.74749e-22)
(-0.137802 -0.0143227 -4.31103e-21)
(-0.123365 -0.0120226 -7.26495e-21)
(-0.10403 -0.0109546 6.70606e-21)
(-0.0820835 -0.00947772 -3.57535e-21)
(-0.0550073 -0.0114127 4.89188e-21)
(-0.0224202 -0.012072 -9.70973e-22)
(0.00786424 -0.0204015 -9.0596e-22)
(0.0587636 -0.0223958 -1.62722e-22)
(0.0783499 -0.0402567 1.59611e-21)
(0.157772 -0.0496674 -3.31462e-23)
(-0.0571069 0.0379268 -8.71435e-20)
(-0.0626302 0.037412 7.03771e-21)
(-0.0672079 0.0369161 1.12551e-20)
(-0.0719387 0.0362697 3.71018e-20)
(-0.0768516 0.0354206 -5.63363e-20)
(-0.0817886 0.0344428 -1.44289e-20)
(-0.0867017 0.033355 2.85587e-20)
(-0.0915569 0.0321747 -8.56626e-21)
(-0.0963261 0.0308925 -1.81932e-20)
(-0.100983 0.0295099 1.69573e-20)
(-0.105513 0.0280191 4.38507e-21)
(-0.1099 0.0264063 -1.79169e-20)
(-0.114131 0.0246518 2.0265e-20)
(-0.11819 0.0227313 -1.38984e-20)
(-0.122059 0.0206177 5.1227e-22)
(-0.125718 0.0182845 4.40744e-20)
(-0.129141 0.015708 -3.20728e-20)
(-0.132298 0.0128715 1.09773e-20)
(-0.135153 0.00976927 -1.00557e-20)
(-0.137665 0.00641395 1.1288e-20)
(-0.139777 0.0028524 -4.74668e-20)
(-0.141403 -0.000830071 2.22032e-20)
(-0.142519 -0.00453946 1.73702e-20)
(-0.1431 -0.00815203 -4.80416e-21)
(-0.143022 -0.0115422 7.83303e-22)
(-0.142206 -0.0145427 -1.05958e-21)
(-0.140471 -0.017038 -1.39354e-20)
(-0.13773 -0.0188482 -2.56269e-21)
(-0.133607 -0.0199732 1.92038e-21)
(-0.128105 -0.0202265 2.39499e-21)
(-0.120412 -0.0199168 2.6836e-21)
(-0.110937 -0.018765 4.83323e-21)
(-0.0979786 -0.0176643 -1.24004e-21)
(-0.0830277 -0.0159276 7.64275e-21)
(-0.0629702 -0.0155725 -1.10017e-21)
(-0.0407058 -0.0146311 -6.00822e-21)
(-0.0130224 -0.0173915 1.62619e-21)
(0.0197504 -0.0182415 -2.2412e-21)
(0.050344 -0.0275786 -3.78833e-21)
(0.101081 -0.029235 -4.96047e-22)
(0.120944 -0.0476866 4.14291e-22)
(0.198218 -0.0567806 -6.57801e-23)
(-0.0413237 0.0406641 1.0757e-20)
(-0.0464826 0.0400568 -4.91776e-20)
(-0.0502449 0.0396546 2.68865e-20)
(-0.0541905 0.0390518 2.38454e-21)
(-0.0583382 0.038176 -1.12182e-20)
(-0.062491 0.0371246 7.86317e-20)
(-0.0665955 0.0359262 1.0534e-20)
(-0.0706225 0.0346266 -4.08592e-20)
(-0.0745511 0.0332126 -3.25468e-20)
(-0.0783549 0.0316942 4.24373e-20)
(-0.0820223 0.0300671 -3.54571e-20)
(-0.085541 0.0283187 3.00354e-20)
(-0.0888979 0.0264297 -3.49532e-20)
(-0.0920771 0.0243749 -2.99895e-21)
(-0.0950594 0.022126 6.65101e-22)
(-0.0978224 0.0196546 7.08727e-20)
(-0.100339 0.0169352 -1.11351e-20)
(-0.102578 0.0139491 8.52206e-21)
(-0.1045 0.0106881 -4.23726e-22)
(-0.106064 0.00716143 -7.48504e-21)
(-0.107208 0.00341125 -1.56586e-21)
(-0.107856 -0.000446539 -1.45717e-20)
(-0.107982 -0.00438105 3.28079e-20)
(-0.107558 -0.00822461 8.05156e-21)
(-0.106468 -0.011866 -1.60959e-20)
(-0.104645 -0.0151359 1.03857e-20)
(-0.101905 -0.0179293 -1.58068e-20)
(-0.0981916 -0.0200617 1.39354e-20)
(-0.0931003 -0.0215541 -5.07104e-21)
(-0.0867144 -0.0222014 4.46022e-21)
(-0.0781224 -0.0223549 -3.39545e-21)
(-0.0679202 -0.0216839 -2.77433e-21)
(-0.0541459 -0.0211598 1.03748e-20)
(-0.038691 -0.0199651 -1.5541e-21)
(-0.017915 -0.0202992 2.50166e-21)
(0.00459845 -0.0198544 2.27324e-21)
(0.0328036 -0.0234313 -4.19651e-21)
(0.0656271 -0.0244478 2.94116e-21)
(0.0963458 -0.0347092 3.14114e-21)