/*--------------------------------*- C++ -*----------------------------------*\
  =========                 |
  \\      /  F ield         | OpenFOAM: The Open Source CFD Toolbox
   \\    /   O peration     | Website:  https://openfoam.org
    \\  /    A nd           | Version:  7
     \\/     M anipulation  |
\*---------------------------------------------------------------------------*/
FoamFile
{
    version     2.0;
    format      ascii;
    class       volScalarField;
    location    "20";
    object      p;
}
// * * * * * * * * * * * * * * * * * * * * * * * * * * * * * * * * * * * * * //

dimensions      [0 2 -2 0 0 0 0];

internalField   nonuniform List<scalar> 
6386
(
-0.272621
-0.274963
-0.277497
-0.280263
-0.279548
-0.28331
-0.282256
-0.286689
-0.285239
-0.28295
-0.290451
-0.288545
-0.285813
-0.282443
-0.294658
-0.29222
-0.289001
-0.285119
-0.299369
-0.296313
-0.292564
-0.288141
-0.283539
-0.304637
-0.300872
-0.296553
-0.29156
-0.286399
-0.28128
-0.310513
-0.305943
-0.301015
-0.295424
-0.289661
-0.283855
-0.277563
-0.317037
-0.311566
-0.305994
-0.299774
-0.293348
-0.286742
-0.279455
-0.271362
-0.324241
-0.317776
-0.311528
-0.30464
-0.297465
-0.289918
-0.281429
-0.271734
-0.259403
-0.33214
-0.324599
-0.317648
-0.310038
-0.302
-0.293335
-0.283401
-0.271913
-0.25804
-0.244478
-0.340737
-0.332047
-0.324367
-0.315964
-0.306919
-0.296912
-0.285262
-0.271811
-0.256304
-0.241195
-0.350012
-0.340117
-0.33168
-0.322387
-0.312154
-0.300534
-0.286893
-0.271349
-0.254178
-0.237631
-0.359923
-0.348785
-0.339554
-0.32925
-0.317602
-0.304055
-0.288176
-0.270457
-0.251635
-0.233735
-0.370398
-0.357999
-0.347927
-0.336457
-0.323115
-0.307313
-0.288993
-0.269068
-0.248641
-0.229457
-0.381333
-0.367676
-0.356697
-0.343873
-0.328509
-0.310138
-0.289234
-0.267119
-0.245154
-0.224749
-0.39259
-0.377695
-0.365726
-0.351314
-0.333571
-0.312361
-0.288796
-0.264546
-0.241127
-0.21956
-0.403992
-0.387896
-0.374831
-0.358557
-0.338073
-0.313819
-0.287579
-0.261286
-0.236505
-0.213841
-0.415325
-0.398081
-0.38379
-0.36534
-0.341784
-0.314357
-0.285488
-0.257272
-0.231234
-0.207545
-0.426338
-0.408011
-0.392338
-0.371377
-0.344477
-0.31383
-0.282432
-0.252437
-0.225253
-0.200624
-0.436747
-0.417412
-0.400178
-0.376373
-0.345936
-0.312104
-0.278322
-0.246711
-0.218506
-0.193038
-0.44624
-0.425982
-0.406985
-0.380036
-0.345962
-0.309053
-0.273074
-0.240029
-0.210934
-0.184748
-0.454486
-0.433395
-0.41242
-0.382086
-0.344372
-0.304565
-0.266608
-0.232325
-0.202485
-0.175717
-0.461143
-0.439312
-0.416147
-0.382265
-0.341006
-0.298536
-0.25885
-0.223538
-0.193111
-0.165916
-0.465865
-0.443389
-0.417842
-0.380343
-0.335723
-0.290878
-0.249733
-0.213614
-0.182776
-0.155329
-0.468318
-0.445288
-0.417207
-0.376122
-0.328406
-0.281512
-0.239194
-0.202501
-0.171446
-0.143943
-0.468185
-0.444691
-0.41398
-0.369438
-0.318962
-0.27038
-0.227187
-0.190154
-0.159081
-0.131697
-0.465176
-0.441306
-0.407939
-0.360164
-0.307324
-0.257438
-0.213678
-0.176544
-0.14562
-0.118409
-0.459039
-0.434879
-0.398914
-0.348214
-0.29345
-0.242662
-0.198656
-0.161667
-0.131025
-0.103819
-0.449563
-0.425207
-0.386779
-0.333536
-0.277324
-0.226046
-0.182115
-0.145538
-0.11536
-0.0879785
-0.436588
-0.41214
-0.371453
-0.316117
-0.258953
-0.207594
-0.16406
-0.128177
-0.0986888
-0.0718082
-0.420006
-0.395583
-0.352908
-0.295978
-0.238368
-0.187332
-0.144536
-0.109668
-0.080889
-0.0551374
-0.399766
-0.375497
-0.331158
-0.273179
-0.215628
-0.16532
-0.123667
-0.0899751
-0.0621216
-0.0377781
-0.375869
-0.351899
-0.306274
-0.247815
-0.190818
-0.141681
-0.101441
-0.0691609
-0.0424874
-0.0197187
-0.348374
-0.324872
-0.278401
-0.219985
-0.164029
-0.116468
-0.0779404
-0.0473096
-0.0220579
-0.00104174
-0.317391
-0.294564
-0.247755
-0.189736
-0.135377
-0.0897789
-0.053263
-0.024511
-0.00090414
0.0181451
-0.283092
-0.261193
-0.214445
-0.157206
-0.105012
-0.0617453
-0.0275237
-0.000860797
0.0208999
0.0377582
-0.245705
-0.225026
-0.178116
-0.122961
-0.0731396
-0.0325142
-0.000848552
0.0235397
0.0432695
0.057694
-0.205445
-0.186266
-0.139396
-0.0869666
-0.0399526
-0.00224729
0.0266384
0.0485958
0.0660518
0.077566
-0.16253
-0.14464
-0.0992867
-0.0494846
-0.00563536
0.0288948
0.0548348
0.074237
0.0889674
0.0965215
-0.117359
-0.100975
-0.0576824
-0.0107934
0.0296053
0.0607516
0.0836498
0.100393
0.111751
0.114105
-0.0703835
-0.055563
-0.0147683
0.0288379
0.0655417
0.0931452
0.112936
0.126868
0.134445
0.132354
-0.0218898
-0.00883994
0.0291488
0.0691352
0.101936
0.125872
0.142446
0.153271
0.157055
0.15608
0.0277129
0.0387951
0.0737212
0.109813
0.138546
0.15871
0.171915
0.179429
0.180205
0.179923
0.0779952
0.086949
0.11859
0.150577
0.17512
0.191437
0.201174
0.205407
0.203609
0.202457
0.128524
0.135223
0.163394
0.191127
0.211403
0.223824
0.230046
0.231074
0.226842
0.224059
0.178864
0.183213
0.207776
0.231163
0.247141
0.255656
0.258366
0.256258
0.249582
0.244742
0.228582
0.230519
0.251383
0.270386
0.28208
0.286718
0.285955
0.280781
0.271655
0.264559
0.277247
0.276743
0.293868
0.308505
0.315974
0.3168
0.312636
0.304475
0.292914
0.283479
0.32444
0.321498
0.334895
0.345236
0.34858
0.345699
0.338233
0.327182
0.313238
0.301448
0.369756
0.36441
0.374142
0.380305
0.379667
0.373217
0.362579
0.348756
0.33251
0.318393
0.412806
0.405123
0.411301
0.413452
0.409015
0.399166
0.385512
0.369059
0.35062
0.334238
0.453219
0.443297
0.44608
0.444431
0.436413
0.423367
0.406879
0.387962
0.367459
0.348907
0.490652
0.478618
0.478208
0.473012
0.461667
0.445655
0.426539
0.405344
0.382926
0.362325
0.524783
0.510794
0.507435
0.498984
0.484596
0.465876
0.444362
0.421092
0.396926
0.374425
0.555324
0.539561
0.533534
0.522154
0.505038
0.48389
0.460229
0.435105
0.409373
0.385146
0.582014
0.564682
0.556304
0.542352
0.522847
0.499574
0.474036
0.447293
0.42019
0.394432
0.604626
0.585952
0.575567
0.559428
0.537896
0.512821
0.48569
0.457576
0.42931
0.40224
0.622968
0.603195
0.591173
0.573256
0.550078
0.52354
0.495116
0.46589
0.436676
0.408528
0.636882
0.616271
0.603002
0.583733
0.559306
0.531657
0.50225
0.47218
0.442243
0.413265
0.646249
0.62507
0.61096
0.590781
0.565512
0.537114
0.507047
0.476407
0.445983
0.416444
0.650988
0.629519
0.614983
0.594343
0.568649
0.539873
0.509471
0.478544
0.447882
0.418077
0.651055
0.62958
0.615038
0.594392
0.568691
0.539909
0.509501
0.47857
0.447906
0.418112
0.646449
0.625249
0.611123
0.590924
0.565635
0.537218
0.50713
0.476473
0.446035
0.416487
0.637205
0.616561
0.603265
0.583963
0.559501
0.531816
0.502375
0.472271
0.442305
0.413299
0.623401
0.603585
0.591524
0.57356
0.550332
0.523743
0.495269
0.465996
0.436739
0.408552
0.605153
0.586425
0.57599
0.559791
0.538195
0.513054
0.48586
0.457688
0.429369
0.402254
0.582614
0.565222
0.556784
0.542759
0.523177
0.499826
0.474213
0.447404
0.420244
0.394438
0.555977
0.540149
0.534056
0.522592
0.505387
0.484151
0.460409
0.435214
0.409423
0.385146
0.525469
0.511414
0.507982
0.499439
0.484954
0.46614
0.444541
0.421198
0.396973
0.374423
0.491351
0.479252
0.478767
0.473474
0.462026
0.445918
0.426715
0.405448
0.382972
0.362323
0.453914
0.44393
0.446638
0.44489
0.436768
0.423626
0.407052
0.388066
0.367507
0.348906
0.413482
0.405742
0.411848
0.413902
0.409362
0.399418
0.385682
0.369163
0.350671
0.334241
0.370402
0.365005
0.37467
0.380739
0.380003
0.373462
0.362747
0.348862
0.332566
0.318399
0.325045
0.32206
0.335397
0.345651
0.348902
0.345937
0.3384
0.327291
0.313299
0.301457
0.277804
0.277265
0.294339
0.308898
0.316281
0.317031
0.312801
0.304588
0.292981
0.283491
0.229087
0.230998
0.25182
0.270755
0.282373
0.286941
0.286119
0.280899
0.271728
0.264572
0.179315
0.183646
0.208177
0.231506
0.247419
0.255872
0.258529
0.25638
0.249665
0.244756
0.12892
0.135608
0.163758
0.191444
0.211666
0.224034
0.23021
0.231202
0.226937
0.224078
0.0783362
0.087287
0.118917
0.150869
0.175367
0.19164
0.201337
0.205541
0.203723
0.202493
0.0280015
0.039087
0.0740115
0.110079
0.138778
0.158908
0.172079
0.179567
0.180345
0.180008
-0.0216507
-0.00859225
0.0294041
0.069377
0.102154
0.126064
0.142611
0.153411
0.157217
0.156284
-0.0701903
-0.0553571
-0.0145463
0.0290561
0.0657454
0.0933318
0.113104
0.127017
0.134625
0.132703
-0.117208
-0.100808
-0.0574913
-0.0105978
0.0297949
0.0609318
0.0838195
0.10055
0.111929
0.114416
-0.162416
-0.144509
-0.0991242
-0.0493107
-0.00545992
0.0290671
0.0550021
0.0743944
0.0891295
0.09675
-0.205365
-0.186168
-0.139259
-0.0868139
-0.0397914
-0.00208458
0.0267991
0.048748
0.0661988
0.0777431
-0.245653
-0.224953
-0.178008
-0.122829
-0.0729925
-0.0323619
-0.000696418
0.0236846
0.0434064
0.0578469
-0.283065
-0.261144
-0.21436
-0.157093
-0.104879
-0.0616036
-0.0273806
-0.000723265
0.0210293
0.0378961
-0.317386
-0.294536
-0.247691
-0.189638
-0.135256
-0.0896478
-0.0531287
-0.0243807
-0.000781636
0.0182708
-0.348387
-0.324862
-0.278354
-0.219902
-0.163921
-0.116347
-0.0778147
-0.0471864
-0.0219418
-0.000925355
-0.375896
-0.351904
-0.306243
-0.247746
-0.190722
-0.14157
-0.101324
-0.0690446
-0.042377
-0.0196089
-0.399804
-0.375513
-0.33114
-0.273123
-0.215542
-0.165218
-0.123558
-0.089865
-0.062016
-0.0376729
-0.420052
-0.395609
-0.3529
-0.295933
-0.238292
-0.187238
-0.144433
-0.109563
-0.0807877
-0.0550358
-0.436639
-0.412172
-0.371454
-0.316081
-0.258886
-0.207508
-0.163964
-0.128077
-0.0985911
-0.0717094
-0.449617
-0.425243
-0.386786
-0.333508
-0.277265
-0.225967
-0.182025
-0.145444
-0.115266
-0.0878826
-0.459094
-0.434918
-0.398927
-0.348192
-0.293398
-0.24259
-0.198571
-0.161577
-0.130934
-0.103726
-0.46523
-0.441344
-0.407954
-0.360148
-0.307278
-0.257371
-0.213599
-0.176457
-0.145531
-0.118318
-0.468237
-0.444728
-0.413996
-0.369425
-0.318921
-0.270317
-0.227111
-0.190071
-0.158995
-0.131609
-0.468366
-0.445323
-0.417223
-0.376112
-0.328368
-0.281454
-0.239122
-0.202421
-0.171362
-0.143857
-0.465908
-0.44342
-0.417857
-0.380334
-0.335688
-0.290823
-0.249664
-0.213537
-0.182694
-0.155244
-0.46118
-0.439338
-0.41616
-0.382257
-0.340974
-0.298485
-0.258785
-0.223464
-0.193031
-0.165833
-0.454517
-0.433417
-0.412429
-0.382077
-0.344342
-0.304516
-0.266545
-0.232252
-0.202406
-0.175635
-0.446264
-0.425998
-0.40699
-0.380026
-0.345932
-0.309006
-0.273014
-0.239959
-0.210857
-0.184667
-0.436765
-0.417423
-0.40018
-0.376361
-0.345907
-0.312059
-0.278264
-0.246643
-0.21843
-0.192959
-0.42635
-0.408016
-0.392336
-0.371363
-0.344448
-0.313786
-0.282375
-0.25237
-0.225179
-0.200546
-0.415331
-0.398081
-0.383783
-0.365323
-0.341755
-0.314314
-0.285433
-0.257207
-0.231161
-0.207467
-0.403992
-0.387891
-0.37482
-0.358538
-0.338044
-0.313777
-0.287525
-0.261222
-0.236434
-0.213764
-0.392584
-0.377684
-0.365711
-0.351293
-0.333541
-0.312319
-0.288743
-0.264484
-0.241057
-0.219483
-0.381323
-0.367661
-0.356679
-0.343849
-0.328478
-0.310097
-0.289183
-0.267058
-0.245085
-0.224673
-0.370383
-0.357981
-0.347905
-0.336431
-0.323082
-0.307272
-0.288943
-0.269008
-0.248573
-0.229382
-0.359904
-0.348764
-0.33953
-0.329222
-0.317568
-0.304014
-0.288127
-0.270399
-0.251568
-0.23366
-0.34999
-0.340093
-0.331653
-0.322358
-0.31212
-0.300494
-0.286845
-0.271292
-0.254112
-0.237556
-0.340712
-0.33202
-0.324338
-0.315932
-0.306884
-0.296872
-0.285215
-0.271755
-0.256239
-0.241121
-0.332113
-0.32457
-0.317618
-0.310006
-0.301965
-0.293296
-0.283355
-0.271858
-0.257976
-0.244404
-0.324211
-0.317746
-0.311497
-0.304607
-0.29743
-0.289879
-0.281385
-0.271681
-0.317006
-0.311535
-0.305961
-0.29974
-0.293313
-0.286703
-0.279411
-0.27131
-0.310481
-0.30591
-0.300981
-0.29539
-0.289626
-0.283817
-0.27752
-0.304603
-0.300838
-0.296519
-0.291526
-0.286364
-0.281243
-0.299333
-0.296278
-0.29253
-0.288106
-0.283504
-0.294621
-0.292184
-0.288965
-0.285084
-0.290413
-0.288508
-0.285776
-0.282407
-0.286649
-0.285201
-0.282913
-0.283269
-0.282217
-0.28022
-0.279507
-0.277453
-0.274917
-0.165306
-0.173578
-0.181291
-0.188471
-0.195139
-0.201323
-0.207046
-0.212333
-0.217206
-0.221688
-0.2258
-0.150813
-0.158737
-0.166218
-0.173278
-0.179941
-0.186229
-0.192162
-0.197762
-0.203054
-0.208067
-0.212842
-0.137832
-0.145368
-0.152558
-0.159426
-0.165997
-0.172294
-0.178342
-0.184168
-0.189805
-0.195292
-0.200672
-0.126272
-0.133435
-0.140337
-0.146999
-0.153442
-0.159689
-0.165762
-0.171685
-0.177481
-0.183177
-0.188785
-0.116011
-0.122808
-0.129407
-0.135825
-0.142078
-0.148183
-0.154155
-0.160008
-0.165752
-0.171396
-0.176934
-0.106853
-0.113282
-0.119557
-0.125691
-0.131696
-0.137585
-0.143367
-0.149051
-0.154642
-0.160155
-0.16559
-0.0986229
-0.104685
-0.110626
-0.116458
-0.12219
-0.12783
-0.133387
-0.138873
-0.144295
-0.14967
-0.155003
-0.0912203
-0.0969202
-0.102527
-0.10805
-0.113496
-0.118873
-0.12419
-0.129457
-0.13468
-0.139869
-0.145024
-0.0845493
-0.0898971
-0.0951737
-0.100386
-0.105541
-0.110644
-0.115702
-0.120722
-0.125708
-0.130666
-0.135595
-0.0785048
-0.0835154
-0.0884716
-0.0933783
-0.0982408
-0.103065
-0.107855
-0.112616
-0.117353
-0.122072
-0.126776
-0.0730162
-0.0777053
-0.0823522
-0.0869611
-0.0915364
-0.096083
-0.100605
-0.105108
-0.109596
-0.114074
-0.118545
-0.0680127
-0.0723978
-0.0767491
-0.0810716
-0.0853692
-0.0896458
-0.0939054
-0.0981519
-0.102389
-0.10662
-0.110848
-0.0634505
-0.0675464
-0.0716151
-0.0756623
-0.0796913
-0.0837053
-0.0877074
-0.0917008
-0.0956889
-0.0996746
-0.103661
-0.0592859
-0.0631059
-0.0669052
-0.0706885
-0.0744589
-0.0782188
-0.0819709
-0.085718
-0.0894631
-0.0932091
-0.0969586
-0.0554635
-0.0590236
-0.0625685
-0.0661017
-0.0696256
-0.0731425
-0.0766547
-0.0801646
-0.0836746
-0.0871871
-0.0907046
-0.0519486
-0.0552643
-0.0585691
-0.0618654
-0.0651553
-0.0684406
-0.0717233
-0.0750054
-0.0782891
-0.0815763
-0.0848692
-0.0487109
-0.0517964
-0.0548746
-0.057947
-0.061015
-0.0640801
-0.0671442
-0.0702088
-0.0732759
-0.076347
-0.0794241
-0.0457163
-0.0485869
-0.0514527
-0.0543144
-0.0571732
-0.0600303
-0.0628872
-0.0657453
-0.0686062
-0.0714712
-0.0743418
-0.0429336
-0.0456068
-0.0482745
-0.0509387
-0.0536008
-0.0562621
-0.0589236
-0.0615865
-0.064252
-0.0669214
-0.0695958
-0.040355
-0.0428416
-0.0453231
-0.0478015
-0.0502784
-0.052755
-0.055232
-0.0577103
-0.0601909
-0.0626748
-0.0651632
-0.0379635
-0.0402733
-0.0425794
-0.0448832
-0.0471859
-0.0494885
-0.0517915
-0.0540956
-0.0564016
-0.0587104
-0.0610228
-0.0357338
-0.0378788
-0.040021
-0.0421616
-0.0443014
-0.0464409
-0.0485806
-0.0507211
-0.052863
-0.055007
-0.0571538
-0.059304
-0.033653
-0.0356446
-0.0376342
-0.0396224
-0.0416096
-0.0435965
-0.0455832
-0.0475704
-0.0495583
-0.0515476
-0.0535387
-0.0555322
-0.0317088
-0.0335579
-0.0354051
-0.037251
-0.0390959
-0.0409401
-0.0427838
-0.0446274
-0.0464712
-0.0483155
-0.0501608
-0.0520074
-0.0298907
-0.0316071
-0.0333219
-0.0350352
-0.0367474
-0.0384586
-0.0401689
-0.0418785
-0.0435876
-0.0452966
-0.0470056
-0.048715
-0.0281895
-0.0297828
-0.0313744
-0.0329645
-0.0345533
-0.0361406
-0.0377266
-0.0393114
-0.0408951
-0.0424779
-0.0440599
-0.0456413
-0.0265985
-0.0280774
-0.0295547
-0.0310304
-0.0325045
-0.0339767
-0.0354472
-0.036916
-0.038383
-0.0398485
-0.0413124
-0.0427748
-0.0251104
-0.0264837
-0.0278552
-0.029225
-0.0305928
-0.0319584
-0.0333219
-0.0346831
-0.036042
-0.0373987
-0.038753
-0.0401052
-0.0237177
-0.0249944
-0.0262689
-0.027541
-0.0288107
-0.0300779
-0.0313425
-0.0326044
-0.0338634
-0.0351196
-0.0363728
-0.037623
-0.0224212
-0.0236085
-0.0247933
-0.0259753
-0.0271546
-0.028331
-0.0295044
-0.0306746
-0.0318415
-0.033005
-0.0341649
-0.0353213
-0.0212185
-0.0223231
-0.023425
-0.0245241
-0.0256202
-0.0267131
-0.0278027
-0.0288887
-0.0299709
-0.0310493
-0.0321236
-0.0331937
-0.020105
-0.021134
-0.0221602
-0.0231835
-0.0242035
-0.0252201
-0.026233
-0.027242
-0.0282469
-0.0292475
-0.0302436
-0.031235
-0.0190795
-0.0200399
-0.0209974
-0.0219517
-0.0229026
-0.0238498
-0.024793
-0.025732
-0.0266665
-0.0275964
-0.0285215
-0.0294415
-0.018142
-0.0190404
-0.0199357
-0.0208278
-0.0217161
-0.0226006
-0.0234808
-0.0243566
-0.0252277
-0.0260938
-0.0269548
-0.0278104
-0.0172929
-0.0181357
-0.0189754
-0.0198116
-0.0206439
-0.0214722
-0.0222961
-0.0231153
-0.0239296
-0.0247387
-0.0255424
-0.0263405
-0.0165336
-0.0173272
-0.0181175
-0.0189042
-0.019687
-0.0204655
-0.0212395
-0.0220086
-0.0227727
-0.0235314
-0.0242846
-0.0250319
-0.0158663
-0.0166169
-0.0173641
-0.0181076
-0.018847
-0.0195821
-0.0203126
-0.0210381
-0.0217585
-0.0224734
-0.0231826
-0.0238859
-0.0152946
-0.0160084
-0.0167188
-0.0174253
-0.0181278
-0.0188258
-0.0195192
-0.0202076
-0.0208908
-0.0215685
-0.0222404
-0.0229064
-0.0148218
-0.0155051
-0.0161848
-0.0168607
-0.0175325
-0.0181999
-0.0188627
-0.0195205
-0.0201731
-0.0208202
-0.0214616
-0.0220971
-0.0144565
-0.0151157
-0.0157712
-0.016423
-0.0170707
-0.0177139
-0.0183526
-0.0189863
-0.0196149
-0.0202382
-0.0208559
-0.0214677
-0.014199
-0.0148408
-0.0154791
-0.0161137
-0.0167443
-0.0173706
-0.0179924
-0.0186095
-0.0192217
-0.0198286
-0.0204302
-0.0210261
-0.0140725
-0.014703
-0.01533
-0.0159532
-0.0165724
-0.0171875
-0.0177983
-0.0184046
-0.0190062
-0.0196029
-0.0201946
-0.0207812
0.124495
0.106206
0.089218
0.0725313
0.05489
0.0369677
0.019444
0.00239703
-0.0142178
-0.030352
-0.0459513
-0.0609924
-0.0754526
-0.0890783
-0.102378
-0.114762
-0.126206
-0.13691
-0.146984
-0.156448
0.115236
0.097515
0.079284
0.0632127
0.0472088
0.0308541
0.0148822
-0.000455728
-0.0152855
-0.0296597
-0.0435274
-0.0568104
-0.0694131
-0.0812128
-0.0928653
-0.103972
-0.114397
-0.124231
-0.133566
-0.142426
0.104319
0.0877519
0.0698132
0.0547189
0.0406255
0.0262308
0.0119744
-0.00169869
-0.0148363
-0.0275513
-0.0398288
-0.0516088
-0.0628588
-0.0736018
-0.084028
-0.0941698
-0.103819
-0.112953
-0.12164
-0.129928
0.0929572
0.0778877
0.0611728
0.0472718
0.0348218
0.0221938
0.00949549
-0.00275864
-0.0144909
-0.0258255
-0.0368037
-0.0473967
-0.0575745
-0.0673183
-0.0765525
-0.0857028
-0.0945641
-0.103016
-0.111086
-0.118828
0.0823099
0.0688196
0.0536335
0.0409665
0.0298812
0.0187572
0.00746242
-0.00352793
-0.0140437
-0.0241782
-0.0340028
-0.0435082
-0.0526656
-0.061469
-0.0699311
-0.0783294
-0.0864691
-0.0942684
-0.101762
-0.109
0.0727288
0.060674
0.0470313
0.0355617
0.0256304
0.015771
0.00571766
-0.00414096
-0.0135942
-0.0226944
-0.0315207
-0.0400799
-0.0483412
-0.0562938
-0.0639809
-0.0717938
-0.0793219
-0.0865302
-0.0934922
-0.10026
0.064186
0.053384
0.0412036
0.030878
0.0219564
0.0131711
0.00420518
-0.00464255
-0.0131606
-0.0213693
-0.029348
-0.0371277
-0.0447106
-0.0520952
-0.0592708
-0.0660668
-0.0728671
-0.0795682
-0.0860874
-0.09243
0.0565864
0.0468876
0.0360504
0.0267943
0.0187701
0.0109054
0.00288505
-0.00506596
-0.0127551
-0.0201804
-0.0274074
-0.0344683
-0.0413599
-0.0480674
-0.0545791
-0.0608883
-0.0671831
-0.073404
-0.0794838
-0.0854151
0.0498429
0.0411272
0.0314997
0.0232195
0.0159947
0.00892652
0.00172751
-0.00543133
-0.0123836
-0.0191151
-0.0256771
-0.0321009
-0.0383884
-0.0445314
-0.050528
-0.0563771
-0.0622002
-0.0679521
-0.073593
-0.07912
0.0438717
0.0360344
0.0274823
0.0200774
0.0135633
0.0071896
0.000706313
-0.00575421
-0.0120519
-0.0181676
-0.0241409
-0.0300003
-0.0357509
-0.0413884
-0.0469142
-0.0523336
-0.0577344
-0.0630598
-0.0682895
-0.0734329
0.0385884
0.0315348
0.0239315
0.0173041
0.0114208
0.0056564
-0.000200545
-0.00604563
-0.0117625
-0.0173313
-0.0227822
-0.0281391
-0.0334058
-0.0385769
-0.043652
-0.0486468
-0.0536832
-0.0586346
-0.0634924
-0.0682808
0.0339125
0.0275568
0.0207873
0.0148471
0.00952352
0.00429656
-0.00100958
-0.00631105
-0.011512
-0.0165942
-0.021582
-0.026497
-0.0313462
-0.0361314
-0.0408529
-0.0455062
-0.0500474
-0.0545904
-0.0591119
-0.0635866
0.0297709
0.0240365
0.017998
0.0126637
0.00783743
0.00308676
-0.00173243
-0.00655168
-0.0112922
-0.0159379
-0.0205079
-0.0250196
-0.0294783
-0.0338833
-0.0382313
-0.0425176
-0.0467272
-0.0509418
-0.0551478
-0.0593197
0.0260986
0.0209174
0.0155195
0.0107193
0.00633555
0.00200887
-0.00237765
-0.00676727
-0.0110952
-0.0153475
-0.0195389
-0.0236835
-0.0277855
-0.0318442
-0.035858
-0.0398256
-0.0437422
-0.047657
-0.0515612
-0.0554391
0.022839
0.0181507
0.0133143
0.00898527
0.00499609
0.00104825
-0.00295228
-0.00695792
-0.0109153
-0.0148127
-0.0186617
-0.0224736
-0.026252
-0.0299967
-0.0337064
-0.0373814
-0.0410206
-0.0446565
-0.0482806
-0.0518835
0.0199428
0.0156941
0.0113506
0.00743764
0.0038011
0.000192835
-0.00346218
-0.00712366
-0.0107477
-0.0143244
-0.0178632
-0.021373
-0.0248569
-0.0283146
-0.0317455
-0.0351499
-0.0385287
-0.0419059
-0.0452712
-0.0486186
0.0173675
0.0135113
0.00960118
0.00605633
0.00273558
-0.000567457
-0.00391225
-0.00726441
-0.0105877
-0.013874
-0.0171308
-0.0203653
-0.0235799
-0.0267745
-0.029949
-0.0331043
-0.036242
-0.0393815
-0.0425071
-0.0456158
0.015076
0.0115709
0.00804264
0.00482421
0.00178681
-0.00124127
-0.00430685
-0.00738047
-0.0104322
-0.0134553
-0.0164556
-0.0194389
-0.0224067
-0.0253583
-0.0282928
-0.0312107
-0.0341168
-0.0370424
-0.0399503
-0.042839
0.0130365
0.009846
0.00665506
0.00372674
0.000944116
-0.00183571
-0.0046494
-0.00747162
-0.0102776
-0.013062
-0.0158297
-0.0185854
-0.0213308
-0.024066
-0.0267914
-0.0295065
-0.0322092
-0.0348855
-0.0375681
-0.0402533
0.0112218
0.00831356
0.00542133
0.00275156
0.000198591
-0.0023565
-0.00494223
-0.00753673
-0.0101195
-0.0126861
-0.0152406
-0.0177865
-0.020325
-0.0228557
-0.0253782
-0.0278915
-0.0303936
-0.0328764
-0.0353667
-0.0378622
0.00960782
0.00695358
0.00432663
0.00188791
-0.000457568
-0.00280873
-0.00518759
-0.00757525
-0.00995466
-0.0123222
-0.0146809
-0.0170336
-0.019381
-0.0217228
-0.0240583
-0.0263871
-0.0287083
-0.0310186
-0.0333327
-0.0356492
0.00817395
0.00574857
0.0033578
0.00112604
-0.00103161
-0.00319743
-0.00538828
-0.00758782
-0.00978183
-0.0119673
-0.0141467
-0.0163222
-0.0184943
-0.0206626
-0.0228265
-0.0249856
-0.0271396
-0.0292869
-0.0314359
-0.0335858
0.00690182
0.00468303
0.002503
0.000457025
-0.00153037
-0.00352753
-0.00554731
-0.00757556
-0.00960047
-0.0116195
-0.0136346
-0.0156475
-0.0176584
-0.0196668
-0.0216724
-0.0236747
-0.0256735
-0.0276678
-0.0296633
-0.0316589
0.00577514
0.00374309
0.0017515
-0.000127374
-0.00196023
-0.00380378
-0.00566773
-0.00753988
-0.00941037
-0.0112771
-0.0131415
-0.015005
-0.0168676
-0.0187289
-0.0205883
-0.0224456
-0.0243005
-0.0261525
-0.0280053
-0.0298578
0.00477934
0.00291631
0.00109355
-0.000634787
-0.00232722
-0.00403075
-0.00575264
-0.0074824
-0.00921179
-0.010939
-0.0126653
-0.0143915
-0.0161176
-0.0178432
-0.0195678
-0.021291
-0.0230126
-0.0247323
-0.0264526
-0.0281724
0.00390138
0.00219145
0.000520199
-0.00107232
-0.00263707
-0.00421289
-0.00580518
-0.00740497
-0.00900537
-0.0106049
-0.0122043
-0.0138044
-0.0154049
-0.0170055
-0.0186056
-0.0202049
-0.0218032
-0.0234001
-0.0249977
-0.0265944
0.00312946
0.00155831
2.31878e-05
-0.00144665
-0.00289522
-0.00435453
-0.00582857
-0.00730969
-0.00879214
-0.0102746
-0.0117577
-0.0132418
-0.0147269
-0.0162123
-0.0176977
-0.0191827
-0.020667
-0.0221505
-0.0236348
-0.0251177
0.00245291
0.00100753
-0.000405164
-0.0017641
-0.00310696
-0.00446001
-0.00582618
-0.00719899
-0.00857363
-0.00994893
-0.0113253
-0.012703
-0.0140818
-0.0154611
-0.0168405
-0.0182195
-0.0195979
-0.0209759
-0.0223566
-0.023735
0.001862
0.000530537
-0.000772006
-0.00203068
-0.00327741
-0.00453364
-0.00580152
-0.00707561
-0.00835188
-0.00962933
-0.0109082
-0.0121886
-0.0134704
-0.0147529
-0.0160358
-0.0173187
-0.018601
-0.0198822
-0.0211609
-0.0224395
0.00134797
0.000119583
-0.00108386
-0.0022519
-0.00341125
-0.00457934
-0.00575771
-0.00694184
-0.00812836
-0.00931638
-0.010506
-0.0116973
-0.0128899
-0.0140833
-0.0152772
-0.0164709
-0.0176641
-0.0188559
-0.0200438
-0.0212323
0.000902847
-0.000232441
-0.00134682
-0.00243299
-0.00351304
-0.00460101
-0.005698
-0.00680028
-0.00790504
-0.00901147
-0.0101196
-0.0112293
-0.0123402
-0.0134519
-0.0145639
-0.0156757
-0.0167869
-0.017897
-0.0190047
-0.020112
0.000519334
-0.000532142
-0.00156663
-0.00257903
-0.00358733
-0.00460271
-0.00562597
-0.00665405
-0.00768462
-0.00871694
-0.00975092
-0.0107864
-0.0118231
-0.0128604
-0.0138979
-0.0149353
-0.015972
-0.0170075
-0.0180412
-0.0190739
0.00019076
-0.000785611
-0.0017487
-0.00269488
-0.00363852
-0.00458844
-0.0055452
-0.00650631
-0.00746987
-0.00843518
-0.00940209
-0.0103704
-0.0113397
-0.0123096
-0.0132796
-0.0142493
-0.0152183
-0.0161861
-0.0171522
-0.0181168
-8.89056e-05
-0.000998408
-0.00189804
-0.00278511
-0.00367083
-0.00456206
-0.0054592
-0.00636024
-0.00726362
-0.00816871
-0.00907528
-0.0099831
-0.0108918
-0.0118009
-0.01271
-0.0136187
-0.0145265
-0.0154331
-0.0163379
-0.017241
-0.000325059
-0.00117557
-0.00201927
-0.00285399
-0.00368827
-0.00452734
-0.00537147
-0.00621907
-0.00706885
-0.00792024
-0.00877297
-0.00962678
-0.0104813
-0.011336
-0.0121907
-0.0130447
-0.0138978
-0.0147495
-0.0155993
-0.0164473
-0.000522477
-0.00132161
-0.00211658
-0.0029055
-0.00369466
-0.00448791
-0.00528546
-0.00608605
-0.00688864
-0.00769269
-0.00849791
-0.00930401
-0.0101106
-0.0109173
-0.0117237
-0.0125294
-0.0133339
-0.014137
-0.0149381
-0.0157371
-0.000685311
-0.00144054
-0.00219382
-0.00294338
-0.00369361
-0.00444732
-0.00520462
-0.00596455
-0.00672624
-0.00748921
-0.00825315
-0.00901775
-0.00978264
-0.0105474
-0.0113118
-0.0120752
-0.0128374
-0.0135979
-0.0143565
-0.0151127
-0.000817064
-0.00153582
-0.00225439
-0.00297102
-0.00368858
-0.00440902
-0.0051324
-0.00585798
-0.00658508
-0.00731323
-0.00804212
-0.00877143
-0.00950082
-0.0102299
-0.0109583
-0.0116857
-0.0124117
-0.0131359
-0.013858
-0.0145777
-0.000920557
-0.00161036
-0.00230129
-0.00299151
-0.00368276
-0.00437629
-0.00507215
-0.00576977
-0.00646859
-0.0071682
-0.00786828
-0.00856853
-0.0092686
-0.00996816
-0.0106669
-0.0113643
-0.0120603
-0.0127543
-0.0134461
-0.0141354
-0.000997907
-0.00166655
-0.00233714
-0.00300779
-0.00367938
-0.00435269
-0.00502775
-0.00570414
-0.00638138
-0.0070591
-0.007737
-0.00841477
-0.00909211
-0.00976868
-0.0104442
-0.0111183
-0.0117906
-0.0124609
-0.0131288
-0.0137941
-0.0010501
-0.0017057
-0.00236345
-0.00302147
-0.00368006
-0.00433975
-0.00500058
-0.00566223
-0.00632432
-0.00698654
-0.00764859
-0.00831021
-0.00897112
-0.00963105
-0.0102897
-0.0109468
-0.011602
-0.0122551
-0.0129058
-0.0135539
-0.00107729
-0.00172895
-0.00238304
-0.0030374
-0.0036919
-0.00434683
-0.00500223
-0.00565785
-0.00631334
-0.00696839
-0.00762273
-0.00827611
-0.00892829
-0.009579
-0.010228
-0.010875
-0.0115199
-0.0121623
-0.012802
-0.0134388
0.127894
0.129384
0.132125
0.135996
0.140785
0.146444
0.152769
0.159711
0.167015
0.174604
0.182111
0.189411
0.195939
0.201544
0.20534
0.207262
0.205837
0.201399
0.191054
0.176166
0.14912
0.126842
0.128268
0.130882
0.134565
0.139099
0.144419
0.150315
0.156717
0.163354
0.170129
0.176654
0.182784
0.187943
0.19196
0.193975
0.193882
0.19036
0.18355
0.171407
0.15478
0.132575
0.125688
0.127041
0.129512
0.132982
0.137227
0.142172
0.147594
0.153409
0.159333
0.165253
0.170767
0.175722
0.179548
0.182075
0.182505
0.180732
0.175681
0.167465
0.154975
0.138944
0.119706
0.124425
0.125698
0.128016
0.131257
0.135196
0.139743
0.14467
0.149876
0.15507
0.160121
0.164631
0.168433
0.170991
0.172127
0.171159
0.167964
0.161792
0.152703
0.140265
0.124853
0.107008
0.12305
0.124238
0.126393
0.129394
0.133013
0.137148
0.141565
0.146151
0.150611
0.154799
0.158331
0.161027
0.162407
0.162279
0.160105
0.155745
0.148741
0.139101
0.126739
0.111857
0.0950667
0.121558
0.122657
0.124643
0.127391
0.130678
0.134387
0.138285
0.142243
0.145972
0.149311
0.151903
0.153554
0.153855
0.152606
0.149412
0.14413
0.136518
0.126565
0.114354
0.100095
0.08439
0.119947
0.120952
0.122761
0.125248
0.128191
0.131464
0.134837
0.138164
0.141173
0.143685
0.145383
0.146062
0.145388
0.143167
0.139125
0.133137
0.125105
0.115041
0.103116
0.0895713
0.074947
0.118215
0.119122
0.120748
0.122964
0.125557
0.128386
0.131231
0.133932
0.136237
0.137956
0.138812
0.138602
0.137062
0.134013
0.129284
0.122777
0.114495
0.104482
0.0929563
0.0801572
0.0665588
0.116358
0.117164
0.118602
0.120542
0.122778
0.125161
0.12748
0.129568
0.131192
0.13216
0.132235
0.131223
0.128926
0.125189
0.11992
0.113058
0.10467
0.0948289
0.0837738
0.0717196
0.0590875
0.114377
0.115079
0.116325
0.117983
0.11986
0.121799
0.1236
0.125092
0.126065
0.126331
0.125691
0.123969
0.121023
0.116729
0.111054
0.103974
0.0955978
0.0860164
0.0754737
0.0641539
0.0524342
0.11227
0.112866
0.113918
0.115294
0.116812
0.118311
0.119607
0.120527
0.120886
0.120503
0.119219
0.116878
0.113387
0.108655
0.102694
0.0955112
0.0872402
0.077981
0.067974
0.0573724
0.0465128
0.110039
0.110528
0.111385
0.112478
0.113641
0.114711
0.115519
0.115895
0.11568
0.114707
0.112851
0.109982
0.106045
0.100983
0.0948406
0.0876485
0.0795555
0.0706627
0.0612014
0.0512951
0.0412422
0.107685
0.108067
0.108729
0.109543
0.110358
0.111012
0.111353
0.11122
0.110476
0.108974
0.106618
0.103306
0.099017
0.0937209
0.0874863
0.0803614
0.0725015
0.0640042
0.0550875
0.0458479
0.0365477
0.105211
0.105487
0.105957
0.106498
0.106974
0.10723
0.10713
0.106525
0.1053
0.10333
0.100546
0.0968739
0.0923168
0.0868701
0.0806187
0.073622
0.0660355
0.0579506
0.0495689
0.0409631
0.032363
0.102622
0.102794
0.103074
0.103351
0.103502
0.10338
0.102868
0.101831
0.100177
0.0978001
0.0946577
0.0907003
0.0859518
0.0804271
0.0742214
0.0674004
0.0601155
0.0524499
0.0445875
0.0365806
0.0286293
0.0999218
0.099993
0.10009
0.100113
0.0999541
0.0994796
0.0985875
0.0971611
0.0951271
0.0924046
0.0889702
0.084797
0.0799251
0.0743842
0.0682749
0.0616658
0.0547005
0.0474535
0.0400905
0.0326464
0.0252954
0.0971185
0.0970927
0.0970143
0.0967963
0.0963459
0.095545
0.0943071
0.0925345
0.0901726
0.0871621
0.0834977
0.0791714
0.0742355
0.0687303
0.0627579
0.0563869
0.0497513
0.0429163
0.0360301
0.0291131
0.0223164
0.0942197
0.0941019
0.0938568
0.0934126
0.0926921
0.0915931
0.0900455
0.0879705
0.085331
0.0820876
0.0782504
0.0738271
0.0688783
0.0634516
0.0576476
0.051533
0.0452307
0.0387969
0.0323634
0.0259384
0.0196529
0.0912349
0.0910309
0.0906296
0.0899759
0.089008
0.087641
0.0858206
0.0834865
0.0806181
0.0771935
0.0732356
0.0687645
0.0638461
0.0585327
0.0529211
0.0470742
0.0411038
0.0350577
0.0290519
0.0230851
0.0172708
0.0881749
0.0878912
0.0873454
0.0865002
0.0853093
0.0837053
0.0816491
0.0790986
0.0760474
0.0724893
0.0684572
0.0639811
0.0591297
0.0539571
0.048555