# Probe 0 (2 -0.5 0)
# Probe 1 (2 0.5 0)
#       Probe             0             1
#        Time
        0.005      -9.82678      -9.82678
         0.01       0.30567      0.305668
        0.015      -0.36348      -0.36348
         0.02     -0.258025     -0.258025
        0.025     -0.221873     -0.221873
         0.03     -0.190083     -0.190083
        0.035     -0.167909     -0.167909
         0.04     -0.151823     -0.151823
        0.045     -0.139652     -0.139652
         0.05     -0.130008     -0.130008
        0.055      -0.12207      -0.12207
         0.06     -0.115345     -0.115345
        0.065     -0.109529     -0.109529
         0.07     -0.104418     -0.104418
        0.075    -0.0998742    -0.0998742
         0.08    -0.0957981    -0.0957981
        0.085    -0.0921105    -0.0921105
         0.09    -0.0887567    -0.0887567
        0.095    -0.0856847    -0.0856847
          0.1    -0.0828576    -0.0828576
        0.105    -0.0802466    -0.0802466
         0.11    -0.0778243    -0.0778243
        0.115    -0.0755691    -0.0755691
         0.12    -0.0734616    -0.0734616
        0.125    -0.0714887    -0.0714887
         0.13     -0.069634     -0.069634
        0.135     -0.067888     -0.067888
         0.14    -0.0662397    -0.0662397
        0.145    -0.0646806    -0.0646806
         0.15    -0.0632031    -0.0632031
        0.155    -0.0617986    -0.0617986
         0.16    -0.0604637    -0.0604637
        0.165    -0.0591918    -0.0591918
         0.17     -0.057978     -0.057978
        0.175    -0.0568161    -0.0568161
         0.18    -0.0557101    -0.0557101
        0.185    -0.0546465    -0.0546465
         0.19    -0.0536264    -0.0536264
        0.195     -0.052647     -0.052647
          0.2    -0.0517059    -0.0517059
        0.205    -0.0508002    -0.0508002
         0.21    -0.0499272    -0.0499272
        0.215    -0.0490887    -0.0490887
         0.22     -0.048273     -0.048273
        0.225    -0.0474914    -0.0474914
         0.23    -0.0467325    -0.0467325
        0.235    -0.0460007    -0.0460007
         0.24    -0.0452922    -0.0452922
        0.245    -0.0446051    -0.0446052
         0.25    -0.0439407    -0.0439407
        0.255    -0.0432946    -0.0432946
         0.26    -0.0426733    -0.0426733
        0.265    -0.0420656    -0.0420656
         0.27    -0.0414754    -0.0414754
        0.275    -0.0409021    -0.0409021
         0.28    -0.0403452    -0.0403452
        0.285    -0.0398036    -0.0398036
         0.29    -0.0392769     -0.039277
        0.295    -0.0387599    -0.0387599
          0.3    -0.0382602    -0.0382602
        0.305    -0.0377729    -0.0377729
         0.31    -0.0372985    -0.0372985
        0.315    -0.0368353    -0.0368353
         0.32    -0.0363833    -0.0363833
        0.325    -0.0359414    -0.0359414
         0.33    -0.0355125    -0.0355125
        0.335    -0.0350916    -0.0350916
         0.34    -0.0346805    -0.0346805
        0.345    -0.0342785    -0.0342785
         0.35    -0.0338896    -0.0338896
        0.355    -0.0335083    -0.0335083
         0.36    -0.0331332    -0.0331332
        0.365     -0.032766     -0.032766
         0.37    -0.0324083    -0.0324083
        0.375    -0.0320581    -0.0320581
         0.38    -0.0317172    -0.0317172
        0.385    -0.0313791    -0.0313791
         0.39    -0.0310484    -0.0310484
        0.395    -0.0307273    -0.0307273
          0.4    -0.0304126    -0.0304126
        0.405    -0.0301042    -0.0301042
         0.41    -0.0298017    -0.0298017
        0.415    -0.0295055    -0.0295055
         0.42    -0.0292165    -0.0292165
        0.425     -0.028932     -0.028932
         0.43    -0.0286533    -0.0286533
        0.435    -0.0283801    -0.0283801
         0.44    -0.0281121    -0.0281121
        0.445    -0.0278497    -0.0278497
         0.45     -0.027592     -0.027592
        0.455    -0.0273384    -0.0273384
         0.46    -0.0270925    -0.0270925
        0.465    -0.0268476    -0.0268476
         0.47    -0.0266135    -0.0266135
        0.475    -0.0263809    -0.0263809
         0.48    -0.0261534    -0.0261534
        0.485    -0.0259282    -0.0259282
         0.49    -0.0257078    -0.0257078
        0.495    -0.0254916    -0.0254916
          0.5    -0.0252777    -0.0252776
        0.505    -0.0250705    -0.0250705
         0.51    -0.0248675    -0.0248675
        0.515    -0.0246687    -0.0246687
         0.52    -0.0244696    -0.0244696
        0.525    -0.0242789    -0.0242788
         0.53    -0.0240903    -0.0240903
        0.535    -0.0239059    -0.0239059
         0.54     -0.023725     -0.023725
        0.545    -0.0235473    -0.0235473
         0.55     -0.023374     -0.023374
        0.555    -0.0232039    -0.0232039
         0.56    -0.0230369    -0.0230369
        0.565    -0.0228732    -0.0228732
         0.57    -0.0227128    -0.0227128
        0.575    -0.0225557    -0.0225557
         0.58    -0.0224017    -0.0224017
        0.585    -0.0222509    -0.0222509
         0.59    -0.0221029    -0.0221029
        0.595    -0.0219602    -0.0219602
          0.6    -0.0218185    -0.0218185
        0.605    -0.0216798    -0.0216798
         0.61    -0.0215445    -0.0215445
        0.615     -0.021412    -0.0214119
         0.62    -0.0212822    -0.0212822
        0.625    -0.0211554    -0.0211553
         0.63    -0.0210309    -0.0210309
        0.635      -0.02091      -0.02091
         0.64    -0.0207929    -0.0207928
        0.645    -0.0206767    -0.0206767
         0.65     -0.020565     -0.020565
        0.655    -0.0204564    -0.0204564
         0.66    -0.0203492    -0.0203492
        0.665    -0.0202463    -0.0202463
         0.67    -0.0201434    -0.0201434
        0.675    -0.0200457    -0.0200457
         0.68    -0.0199486    -0.0199486
        0.685    -0.0198544    -0.0198544
         0.69    -0.0197629    -0.0197629
        0.695    -0.0196741    -0.0196741
          0.7    -0.0195879    -0.0195879
        0.705    -0.0195043    -0.0195043
         0.71    -0.0194232    -0.0194232
        0.715    -0.0193445    -0.0193445
         0.72    -0.0192683    -0.0192683
        0.725    -0.0191963    -0.0191963
         0.73    -0.0191235    -0.0191234
        0.735     -0.019056    -0.0190559
         0.74    -0.0189879    -0.0189879
        0.745    -0.0189245    -0.0189245
         0.75    -0.0188626    -0.0188626
        0.755    -0.0188043    -0.0188043
         0.76    -0.0187485    -0.0187485
        0.765    -0.0186939    -0.0186939
         0.77    -0.0186425    -0.0186425
        0.775    -0.0185936    -0.0185936
         0.78    -0.0185464    -0.0185464
        0.785    -0.0185016    -0.0185016
         0.79     -0.018459     -0.018459
        0.795     -0.018419     -0.018419
          0.8     -0.018382     -0.018382
        0.805    -0.0183466    -0.0183466
         0.81    -0.0183135    -0.0183135
        0.815    -0.0182827    -0.0182827
         0.82    -0.0182543    -0.0182543
        0.825     -0.018228     -0.018228
         0.83    -0.0182033    -0.0182033
        0.835    -0.0181824    -0.0181824
         0.84    -0.0181643    -0.0181643
        0.845    -0.0181476    -0.0181476
         0.85    -0.0181334    -0.0181334
        0.855    -0.0181207    -0.0181207
         0.86    -0.0181104    -0.0181104
        0.865    -0.0181024    -0.0181024
         0.87     -0.018096     -0.018096
        0.875    -0.0180937    -0.0180937
         0.88    -0.0180925    -0.0180925
        0.885    -0.0180934    -0.0180934
         0.89    -0.0180963    -0.0180963
        0.895    -0.0181018    -0.0181018
          0.9    -0.0181105    -0.0181105
        0.905    -0.0181214    -0.0181214
         0.91    -0.0181335    -0.0181335
        0.915    -0.0181477    -0.0181477
         0.92    -0.0181642    -0.0181642
        0.925    -0.0181828    -0.0181828
         0.93    -0.0182044    -0.0182044
        0.935     -0.018228     -0.018228
         0.94    -0.0182532    -0.0182532
        0.945    -0.0182824    -0.0182824
         0.95    -0.0183135    -0.0183135
        0.955    -0.0183462    -0.0183462
         0.96    -0.0183821    -0.0183821
        0.965    -0.0184182    -0.0184182
         0.97    -0.0184567    -0.0184567
        0.975    -0.0184976    -0.0184976
         0.98    -0.0185408    -0.0185408
        0.985    -0.0185862    -0.0185862
         0.99    -0.0186339    -0.0186339
        0.995    -0.0186838    -0.0186838
            1    -0.0187359    -0.0187359
        1.005    -0.0187901    -0.0187901
         1.01    -0.0188466    -0.0188466
        1.015    -0.0189052    -0.0189052
         1.02    -0.0189661    -0.0189661
        1.025    -0.0190291    -0.0190291
         1.03    -0.0190939    -0.0190939
        1.035    -0.0191609    -0.0191609
         1.04    -0.0192303    -0.0192303
        1.045    -0.0193053    -0.0193053
         1.05    -0.0193789    -0.0193789
        1.055    -0.0194546    -0.0194546
         1.06    -0.0195323    -0.0195323
        1.065    -0.0196123    -0.0196123
         1.07    -0.0196965    -0.0196965
        1.075    -0.0197819    -0.0197819
         1.08    -0.0198672    -0.0198672
        1.085    -0.0199563    -0.0199563
         1.09    -0.0200473    -0.0200473
        1.095    -0.0201404    -0.0201404
          1.1     -0.020235     -0.020235
        1.105     -0.020333     -0.020333
         1.11    -0.0204327    -0.0204327
        1.115    -0.0205347    -0.0205347
         1.12    -0.0206391    -0.0206391
        1.125    -0.0207456    -0.0207456
         1.13     -0.020852     -0.020852
        1.135    -0.0209628    -0.0209628
         1.14     -0.021075     -0.021075
        1.145    -0.0211896    -0.0211896
         1.15    -0.0213065    -0.0213065
        1.155    -0.0214266    -0.0214265
         1.16    -0.0215473    -0.0215473
        1.165    -0.0216703    -0.0216703
         1.17    -0.0217954    -0.0217954
        1.175    -0.0219226    -0.0219226
         1.18    -0.0220518    -0.0220518
        1.185    -0.0221827    -0.0221827
         1.19    -0.0223163    -0.0223163
        1.195     -0.022452     -0.022452
          1.2     -0.022592     -0.022592
        1.205    -0.0227317    -0.0227317
         1.21    -0.0228731     -0.022873
        1.215    -0.0230165    -0.0230165
         1.22    -0.0231618    -0.0231618
        1.225    -0.0233106    -0.0233105
         1.23    -0.0234603    -0.0234603
        1.235    -0.0236121    -0.0236121
         1.24     -0.023766     -0.023766
        1.245    -0.0239219    -0.0239219
         1.25    -0.0240799    -0.0240799
        1.255    -0.0242396    -0.0242396
         1.26    -0.0244012    -0.0244012
        1.265     -0.024566     -0.024566
         1.27    -0.0247324    -0.0247324
        1.275    -0.0249001    -0.0249001
         1.28    -0.0250699    -0.0250699
        1.285    -0.0252417    -0.0252417
         1.29    -0.0254154    -0.0254154
        1.295    -0.0255902    -0.0255902
          1.3    -0.0257678    -0.0257677
        1.305    -0.0259476    -0.0259476
         1.31    -0.0261287    -0.0261286
        1.315    -0.0263127    -0.0263126
         1.32    -0.0264985    -0.0264985
        1.325    -0.0266857    -0.0266856
         1.33    -0.0268748    -0.0268748
        1.335    -0.0270658    -0.0270657
         1.34    -0.0272599    -0.0272599
        1.345    -0.0274545    -0.0274544
         1.35    -0.0276506    -0.0276506
        1.355    -0.0278487    -0.0278487
         1.36    -0.0280497    -0.0280497
        1.365    -0.0282525    -0.0282525
         1.37    -0.0284565    -0.0284565
        1.375     -0.028662     -0.028662
         1.38     -0.028869     -0.028869
        1.385    -0.0290787    -0.0290787
         1.39    -0.0292907    -0.0292906
        1.395    -0.0295034    -0.0295034
          1.4    -0.0297179    -0.0297179
        1.405    -0.0299343    -0.0299343
         1.41     -0.030152     -0.030152
        1.415    -0.0303728    -0.0303728
         1.42    -0.0305945    -0.0305945
        1.425    -0.0308184    -0.0308184
         1.43    -0.0310436    -0.0310436
        1.435    -0.0312704    -0.0312704
         1.44    -0.0314989    -0.0314989
        1.445    -0.0317292    -0.0317292
         1.45    -0.0319611    -0.0319611
        1.455    -0.0321946    -0.0321946
         1.46    -0.0324298    -0.0324298
        1.465    -0.0326666    -0.0326666
         1.47    -0.0329057    -0.0329056
        1.475    -0.0331458    -0.0331457
         1.48    -0.0333869    -0.0333869
        1.485    -0.0336299    -0.0336298
         1.49    -0.0338759    -0.0338759
        1.495    -0.0341222    -0.0341222
          1.5    -0.0343698    -0.0343698
        1.505    -0.0346183    -0.0346183
         1.51    -0.0348696    -0.0348696
        1.515    -0.0351234    -0.0351233
         1.52    -0.0353769    -0.0353769
        1.525    -0.0356321    -0.0356321
         1.53    -0.0358887    -0.0358887
        1.535    -0.0361466    -0.0361466
         1.54    -0.0364075    -0.0364075
        1.545    -0.0366693    -0.0366693
         1.55    -0.0369331     -0.036933
        1.555    -0.0371976    -0.0371976
         1.56    -0.0374631    -0.0374631
        1.565    -0.0377299    -0.0377299
         1.57    -0.0379982    -0.0379982
        1.575    -0.0382679    -0.0382679
         1.58    -0.0385391     -0.038539
        1.585    -0.0388116    -0.0388115
         1.59    -0.0390854    -0.0390854
        1.595    -0.0393606    -0.0393606
          1.6    -0.0396367    -0.0396367
        1.605    -0.0399151    -0.0399151
         1.61    -0.0401941    -0.0401941
        1.615    -0.0404745    -0.0404745
         1.62    -0.0407561     -0.040756
        1.625    -0.0410389    -0.0410389
         1.63    -0.0413229    -0.0413229
        1.635     -0.041608     -0.041608
         1.64    -0.0418936    -0.0418936
        1.645    -0.0421825    -0.0421824
         1.65    -0.0424726    -0.0424725
        1.655    -0.0427628    -0.0427627
         1.66    -0.0430537    -0.0430537
        1.665     -0.043346     -0.043346
         1.67    -0.0436394    -0.0436394
        1.675     -0.043934     -0.043934
         1.68    -0.0442297    -0.0442297
        1.685    -0.0445265    -0.0445265
         1.69    -0.0448244    -0.0448244
        1.695     -0.045123     -0.045123
          1.7    -0.0454238    -0.0454238
        1.705    -0.0457247    -0.0457247
         1.71    -0.0460268    -0.0460268
        1.715    -0.0463298    -0.0463298
         1.72    -0.0466339    -0.0466339
        1.725    -0.0469389    -0.0469389
         1.73    -0.0472448    -0.0472448
        1.735    -0.0475515    -0.0475515
         1.74      -0.04786    -0.0478599
        1.745    -0.0481696    -0.0481696
         1.75    -0.0484801    -0.0484801
        1.755    -0.0487902    -0.0487902
         1.76    -0.0491017    -0.0491017
        1.765    -0.0494141    -0.0494141
         1.77    -0.0497271    -0.0497271
        1.775    -0.0500405    -0.0500405
         1.78    -0.0503567    -0.0503567
        1.785    -0.0506721    -0.0506721
         1.79    -0.0509891    -0.0509891
        1.795    -0.0513066    -0.0513066
          1.8    -0.0516248    -0.0516248
        1.805    -0.0519443    -0.0519443
         1.81    -0.0522639    -0.0522639
        1.815    -0.0525838    -0.0525838
         1.82    -0.0529061     -0.052906
        1.825    -0.0532288    -0.0532288
         1.83    -0.0535513    -0.0535513
        1.835    -0.0538745    -0.0538745
         1.84    -0.0541985    -0.0541985
        1.845    -0.0545232    -0.0545232
         1.85    -0.0548486    -0.0548486
        1.855    -0.0551748    -0.0551748
         1.86    -0.0555015    -0.0555015
        1.865    -0.0558288    -0.0558288
         1.87    -0.0561567    -0.0561567
        1.875    -0.0564852    -0.0564852
         1.88    -0.0568146    -0.0568145
        1.885    -0.0571442    -0.0571442
         1.89    -0.0574744    -0.0574744
        1.895    -0.0578052    -0.0578052
          1.9    -0.0581365    -0.0581365
        1.905    -0.0584683    -0.0584683
         1.91    -0.0588003    -0.0588003
        1.915     -0.059133     -0.059133
         1.92    -0.0594675    -0.0594675
        1.925    -0.0598009    -0.0598009
         1.93    -0.0601351    -0.0601351
        1.935    -0.0604696    -0.0604696
         1.94    -0.0608047    -0.0608047
        1.945    -0.0611401    -0.0611401
         1.95    -0.0614758    -0.0614758
        1.955    -0.0618115    -0.0618115
         1.96    -0.0621493    -0.0621493
        1.965    -0.0624865    -0.0624865
         1.97    -0.0628247    -0.0628247
        1.975    -0.0631622    -0.0631622
         1.98    -0.0634999    -0.0634999
        1.985    -0.0638384    -0.0638384
         1.99    -0.0641768    -0.0641768
        1.995    -0.0645153    -0.0645153
            2    -0.0648556    -0.0648556
        2.005    -0.0651959    -0.0651959
         2.01    -0.0655357    -0.0655357
        2.015    -0.0658756    -0.0658756
         2.02    -0.0662157    -0.0662157
        2.025    -0.0665565    -0.0665565
         2.03     -0.066897     -0.066897
        2.035    -0.0672381     -0.067238
         2.04    -0.0675796    -0.0675796
        2.045    -0.0679209    -0.0679209
         2.05    -0.0682618    -0.0682618
        2.055    -0.0686035    -0.0686035
         2.06    -0.0689466    -0.0689466
        2.065    -0.0692883    -0.0692883
         2.07    -0.0696309    -0.0696309
        2.075    -0.0699731    -0.0699731
         2.08    -0.0703157    -0.0703157
        2.085    -0.0706585    -0.0706585
         2.09    -0.0710014    -0.0710014
        2.095    -0.0713439    -0.0713439
          2.1    -0.0716863    -0.0716863
        2.105    -0.0720297    -0.0720297
         2.11    -0.0723726    -0.0723726
        2.115    -0.0727155    -0.0727155
         2.12    -0.0730585    -0.0730585
        2.125    -0.0734014    -0.0734014
         2.13    -0.0737444    -0.0737444
        2.135    -0.0740873    -0.0740873
         2.14    -0.0744307    -0.0744307
        2.145    -0.0747738    -0.0747738
         2.15    -0.0751167    -0.0751167
        2.155    -0.0754595    -0.0754595
         2.16    -0.0758022    -0.0758022
        2.165    -0.0761451    -0.0761451
         2.17    -0.0764876    -0.0764876
        2.175    -0.0768302    -0.0768302
         2.18    -0.0771725    -0.0771725
        2.185     -0.077514     -0.077514
         2.19    -0.0778569    -0.0778569
        2.195    -0.0782007    -0.0782007
          2.2    -0.0785432    -0.0785432
        2.205    -0.0788853    -0.0788853
         2.21    -0.0792275    -0.0792275
        2.215    -0.0795689    -0.0795689
         2.22    -0.0799097    -0.0799097
        2.225    -0.0802518    -0.0802518
         2.23     -0.080593     -0.080593
        2.235    -0.0809339    -0.0809339
         2.24    -0.0812739    -0.0812739
        2.245    -0.0816157    -0.0816157
         2.25    -0.0819561    -0.0819561
        2.255    -0.0822962    -0.0822962
         2.26    -0.0826352    -0.0826352
        2.265    -0.0829764    -0.0829764
         2.27    -0.0833158    -0.0833158
        2.275    -0.0836551    -0.0836551
         2.28    -0.0839941    -0.0839941
        2.285    -0.0843327    -0.0843327
         2.29    -0.0846716    -0.0846716
        2.295    -0.0850098    -0.0850098
          2.3    -0.0853478    -0.0853478
        2.305    -0.0856854    -0.0856854
         2.31    -0.0860222    -0.0860222
        2.315    -0.0863599    -0.0863599
         2.32    -0.0866966    -0.0866966
        2.325    -0.0870327    -0.0870327
         2.33    -0.0873699    -0.0873699
        2.335    -0.0877055    -0.0877055
         2.34    -0.0880408    -0.0880408
        2.345    -0.0883757    -0.0883757
         2.35    -0.0887106    -0.0887106
        2.355     -0.089045     -0.089045
         2.36    -0.0893789    -0.0893789
        2.365    -0.0897125    -0.0897125
         2.37    -0.0900457    -0.0900457
        2.375    -0.0903784    -0.0903784
         2.38    -0.0907104    -0.0907104
        2.385    -0.0910423    -0.0910423
         2.39    -0.0913754    -0.0913754
        2.395    -0.0917071    -0.0917071
          2.4    -0.0920377    -0.0920377
        2.405    -0.0923681    -0.0923681
         2.41    -0.0926985    -0.0926985
        2.415    -0.0930279    -0.0930279
         2.42    -0.0933568    -0.0933568
        2.425    -0.0936854    -0.0936854
         2.43    -0.0940134    -0.0940134
        2.435    -0.0943412    -0.0943412
         2.44    -0.0946685    -0.0946685
        2.445    -0.0949952    -0.0949952
         2.45    -0.0953209    -0.0953209
        2.455     -0.095648     -0.095648
         2.46    -0.0959721    -0.0959721
        2.465     -0.096298     -0.096298
         2.47    -0.0966227    -0.0966227
        2.475    -0.0969467    -0.0969467
         2.48    -0.0972699    -0.0972699
        2.485    -0.0975928    -0.0975928
         2.49    -0.0979152    -0.0979152
        2.495    -0.0982367    -0.0982367
          2.5    -0.0985583    -0.0985583
        2.505    -0.0988791    -0.0988791
         2.51    -0.0991993    -0.0991993
        2.515    -0.0995189    -0.0995189
         2.52     -0.099838     -0.099838
        2.525     -0.100155     -0.100155
         2.53     -0.100475     -0.100475
        2.535     -0.100792     -0.100792
         2.54     -0.101109     -0.101109
        2.545     -0.101426     -0.101426
         2.55     -0.101742     -0.101742
        2.555     -0.102057     -0.102057
         2.56     -0.102371     -0.102371
        2.565     -0.102685     -0.102685
         2.57     -0.102999     -0.102999
        2.575     -0.103312     -0.103312
         2.58     -0.103624     -0.103624
        2.585     -0.103936     -0.103936
         2.59     -0.104246     -0.104246
        2.595     -0.104557     -0.104557
          2.6     -0.104866     -0.104866
        2.605     -0.105177     -0.105177
         2.61     -0.105486     -0.105486
        2.615     -0.105794     -0.105794
         2.62     -0.106101     -0.106101
        2.625     -0.106408     -0.106408
         2.63     -0.106714     -0.106714
        2.635     -0.107019     -0.107019
         2.64     -0.107324     -0.107324
        2.645     -0.107628     -0.107628
         2.65     -0.107931     -0.107931
        2.655     -0.108235     -0.108235
         2.66     -0.108537     -0.108537
        2.665     -0.108838     -0.108838
         2.67     -0.109139     -0.109139
        2.675      -0.10944      -0.10944
         2.68     -0.109739     -0.109739
        2.685     -0.110038     -0.110038
         2.69     -0.110336     -0.110336
        2.695     -0.110634     -0.110634
          2.7     -0.110931     -0.110931
        2.705     -0.111227     -0.111227
         2.71     -0.111523     -0.111523
        2.715     -0.111817     -0.111817
         2.72     -0.112112     -0.112112
        2.725     -0.112406     -0.112406
         2.73     -0.112698     -0.112698
        2.735     -0.112992     -0.112992
         2.74     -0.113281     -0.113281
        2.745     -0.113572     -0.113572
         2.75     -0.113862     -0.113862
        2.755     -0.114151     -0.114151
         2.76     -0.114441     -0.114441
        2.765     -0.114729     -0.114729
         2.77     -0.115017     -0.115017
        2.775     -0.115304     -0.115304
         2.78     -0.115589     -0.115589
        2.785     -0.115875     -0.115875
         2.79     -0.116159     -0.116159
        2.795     -0.116443     -0.116443
          2.8     -0.116726     -0.116726
        2.805     -0.117008     -0.117008
         2.81      -0.11729      -0.11729
        2.815      -0.11757      -0.11757
         2.82      -0.11785      -0.11785
        2.825     -0.118129     -0.118129
         2.83      -0.11841      -0.11841
        2.835     -0.118687     -0.118687
         2.84     -0.118964     -0.118964
        2.845     -0.119241     -0.119241
         2.85     -0.119517     -0.119517
        2.855     -0.119792     -0.119792
         2.86     -0.120066     -0.120066
        2.865      -0.12034      -0.12034
         2.87     -0.120613     -0.120613
        2.875     -0.120884     -0.120884
         2.88     -0.121156     -0.121156
        2.885     -0.121427     -0.121427
         2.89     -0.121697     -0.121697
        2.895     -0.121966     -0.121966
          2.9     -0.122234     -0.122234
        2.905     -0.122502     -0.122502
         2.91     -0.122769     -0.122769
        2.915     -0.123036     -0.123036
         2.92     -0.123301     -0.123301
        2.925     -0.123566     -0.123566
         2.93      -0.12383      -0.12383
        2.935     -0.124093     -0.124093
         2.94     -0.124356     -0.124356
        2.945     -0.124617     -0.124617
         2.95     -0.124878     -0.124878
        2.955     -0.125139     -0.125139
         2.96     -0.125398     -0.125398
        2.965     -0.125657     -0.125657
         2.97     -0.125915     -0.125915
        2.975     -0.126172     -0.126172
         2.98     -0.126429     -0.126429
        2.985     -0.126685     -0.126685
         2.99      -0.12694      -0.12694
        2.995     -0.127194     -0.127194
            3     -0.127448     -0.127448
        3.005       -0.1277       -0.1277
         3.01     -0.127952     -0.127952
        3.015     -0.128203     -0.128203
         3.02     -0.128454     -0.128454
        3.025     -0.128704     -0.128704
         3.03     -0.128953     -0.128953
        3.035     -0.129201     -0.129201
         3.04     -0.129453     -0.129453
        3.045     -0.129699     -0.129699
         3.05     -0.129945     -0.129945
        3.055      -0.13019      -0.13019
         3.06     -0.130435     -0.130435
        3.065     -0.130679     -0.130679
         3.07     -0.130922     -0.130922
        3.075     -0.131164     -0.131164
         3.08     -0.131406     -0.131406
        3.085     -0.131647     -0.131647
         3.09     -0.131887     -0.131887
        3.095     -0.132126     -0.132126
          3.1     -0.132364     -0.132364
        3.105     -0.132602     -0.132602
         3.11     -0.132838     -0.132838
        3.115     -0.133075     -0.133075
         3.12      -0.13331      -0.13331
        3.125     -0.133545     -0.133545
         3.13     -0.133779     -0.133779
        3.135     -0.134012     -0.134012
         3.14     -0.134246     -0.134246
        3.145     -0.134477     -0.134477
         3.15     -0.134708     -0.134708
        3.155     -0.134938     -0.134938
         3.16     -0.135167     -0.135167
        3.165     -0.135396     -0.135396
         3.17     -0.135624     -0.135624
        3.175     -0.135851     -0.135851
         3.18     -0.136077     -0.136077
        3.185     -0.136303     -0.136303
         3.19     -0.136528     -0.136528
        3.195     -0.136752     -0.136752
          3.2     -0.136976     -0.136976
        3.205     -0.137199     -0.137199
         3.21      -0.13742      -0.13742
        3.215     -0.137641     -0.137641
         3.22     -0.137862     -0.137862
        3.225     -0.138082     -0.138082
         3.23     -0.138301     -0.138301
        3.235     -0.138519     -0.138519
         3.24     -0.138736     -0.138736
        3.245     -0.138953     -0.138953
         3.25     -0.139169     -0.139169
        3.255     -0.139384     -0.139384
         3.26     -0.139599     -0.139599
        3.265     -0.139813     -0.139813
         3.27     -0.140026     -0.140026
        3.275     -0.140238     -0.140238
         3.28     -0.140449     -0.140449
        3.285      -0.14066      -0.14066
         3.29      -0.14087      -0.14087
        3.295      -0.14108      -0.14108
          3.3     -0.141288     -0.141288
        3.305     -0.141497     -0.141497
         3.31     -0.141704     -0.141704
        3.315     -0.141911     -0.141911
         3.32     -0.142116     -0.142116
        3.325     -0.142322     -0.142322
         3.33     -0.142526     -0.142526
        3.335     -0.142729     -0.142729
         3.34     -0.142932     -0.142932
        3.345     -0.143134     -0.143134
         3.35     -0.143335     -0.143335
        3.355     -0.143536     -0.143536
         3.36     -0.143736     -0.143736
        3.365     -0.143936     -0.143936
         3.37     -0.144134     -0.144134
        3.375     -0.144331     -0.144331
         3.38     -0.144528     -0.144528
        3.385     -0.144725     -0.144725
         3.39      -0.14492      -0.14492
        3.395     -0.145115     -0.145116
          3.4     -0.145309     -0.145309
        3.405     -0.145503     -0.145503
         3.41     -0.145696     -0.145696
        3.415     -0.145888     -0.145888
         3.42     -0.146079     -0.146079
        3.425      -0.14627      -0.14627
         3.43      -0.14646      -0.14646
        3.435     -0.146649     -0.146649
         3.44     -0.146837     -0.146837
        3.445     -0.147026     -0.147026
         3.45     -0.147213     -0.147213
        3.455     -0.147399     -0.147399
         3.46     -0.147585     -0.147585
        3.465      -0.14777      -0.14777
         3.47     -0.147954     -0.147954
        3.475     -0.148138     -0.148138
         3.48     -0.148321     -0.148321
        3.485     -0.148503     -0.148503
         3.49     -0.148684     -0.148684
        3.495     -0.148865     -0.148865
          3.5     -0.149045     -0.149045
        3.505     -0.149224     -0.149224
         3.51     -0.149404     -0.149404
        3.515     -0.149582     -0.149582
         3.52     -0.149759     -0.149759
        3.525     -0.149936     -0.149936
         3.53     -0.150112     -0.150112
        3.535     -0.150287     -0.150287
         3.54     -0.150462     -0.150462
        3.545     -0.150636     -0.150636
         3.55     -0.150808     -0.150808
        3.555     -0.150982     -0.150982