# Probe 0 (2 -0.5 0)
# Probe 1 (2 0.5 0)
#       Probe             0             1
#        Time
        0.005             (0.955328 0.0415588 -1.12429e-18)             (0.955328 -0.0415589 6.94468e-19)
         0.01             (0.956072 0.0335539 3.20308e-20)             (0.956072 -0.0335539 -1.87894e-20)
        0.015             (0.954312 0.0327273 -4.18651e-20)             (0.954312 -0.0327273 2.59665e-20)
         0.02             (0.952925 0.0326329 -2.95672e-20)             (0.952925 -0.0326329 1.82906e-20)
        0.025             (0.95169 0.0329569 -2.54373e-20)             (0.95169 -0.0329569 1.57402e-20)
         0.03             (0.950583 0.0334306 -2.18141e-20)             (0.950583 -0.0334306 1.35044e-20)
        0.035             (0.949571 0.0339594 -1.92787e-20)             (0.949571 -0.0339594 1.19369e-20)
         0.04             (0.948629 0.0345041 -1.74341e-20)             (0.948629 -0.0345041 1.0795e-20)
        0.045             (0.947741 0.0350487 -1.60365e-20)             (0.947741 -0.0350487 9.92916e-21)
         0.05             (0.946896 0.0355867 -1.49284e-20)             (0.946896 -0.0355866 9.24271e-21)
        0.055             (0.946087 0.0361156 -1.40164e-20)             (0.946087 -0.0361156 8.67787e-21)
         0.06             (0.945307 0.036635 -1.3244e-20)             (0.945307 -0.036635 8.19958e-21)
        0.065             (0.944552 0.0371453 -1.25762e-20)             (0.944552 -0.0371453 7.78619e-21)
         0.07             (0.943819 0.037647 -1.19896e-20)             (0.943819 -0.037647 7.42317e-21)
        0.075             (0.943105 0.038141 -1.14682e-20)             (0.943105 -0.038141 7.10057e-21)
         0.08             (0.942407 0.038628 -1.10006e-20)             (0.942407 -0.038628 6.81132e-21)
        0.085             (0.941725 0.0391086 -1.05777e-20)             (0.941725 -0.0391086 6.54976e-21)
         0.09             (0.941057 0.0395837 -1.01932e-20)             (0.941057 -0.0395837 6.31198e-21)
        0.095             (0.9404 0.0400537 -9.84106e-21)             (0.9404 -0.0400537 6.09424e-21)
          0.1             (0.939755 0.0405193 -9.51706e-21)             (0.939755 -0.0405193 5.89395e-21)
        0.105             (0.939119 0.0409809 -9.21789e-21)             (0.939119 -0.0409808 5.70902e-21)
         0.11             (0.938493 0.0414389 -8.94038e-21)             (0.938493 -0.0414388 5.5375e-21)
        0.115             (0.937875 0.0418937 -8.68207e-21)             (0.937875 -0.0418937 5.37787e-21)
         0.12             (0.937264 0.0423458 -8.44072e-21)             (0.937264 -0.0423458 5.22874e-21)
        0.125             (0.936661 0.0427954 -8.21483e-21)             (0.936661 -0.0427953 5.08918e-21)
         0.13             (0.936064 0.0432428 -8.00252e-21)             (0.936064 -0.0432428 4.95803e-21)
        0.135             (0.935473 0.0436883 -7.80267e-21)             (0.935473 -0.0436883 4.83459e-21)
         0.14             (0.934888 0.0441322 -7.61406e-21)             (0.934888 -0.0441322 4.71811e-21)
        0.145             (0.934307 0.0445747 -7.43569e-21)             (0.934307 -0.0445746 4.60796e-21)
         0.15             (0.933732 0.0450159 -7.26668e-21)             (0.933732 -0.0450159 4.50361e-21)
        0.155             (0.933161 0.0454562 -7.10605e-21)             (0.933161 -0.0454562 4.40445e-21)
         0.16             (0.932594 0.0458956 -6.95342e-21)             (0.932594 -0.0458956 4.31024e-21)
        0.165             (0.932031 0.0463344 -6.80803e-21)             (0.932031 -0.0463344 4.22051e-21)
         0.17             (0.931471 0.0467727 -6.6693e-21)             (0.931471 -0.0467727 4.1349e-21)
        0.175             (0.930914 0.0472107 -6.53654e-21)             (0.930914 -0.0472107 4.053e-21)
         0.18             (0.930361 0.0476485 -6.4102e-21)             (0.930361 -0.0476485 3.97506e-21)
        0.185             (0.929811 0.0480862 -6.28872e-21)             (0.929811 -0.0480862 3.90014e-21)
         0.19             (0.929263 0.048524 -6.17225e-21)             (0.929263 -0.048524 3.82831e-21)
        0.195             (0.928717 0.048962 -6.06046e-21)             (0.928717 -0.048962 3.75938e-21)
          0.2             (0.928174 0.0494002 -5.95305e-21)             (0.928174 -0.0494002 3.69317e-21)
        0.205             (0.927633 0.0498389 -5.84973e-21)             (0.927633 -0.0498389 3.62949e-21)
         0.21             (0.927094 0.050278 -5.75015e-21)             (0.927094 -0.050278 3.56813e-21)
        0.215             (0.926557 0.0507178 -5.65454e-21)             (0.926557 -0.0507178 3.50922e-21)
         0.22             (0.926021 0.0511582 -5.56155e-21)             (0.926021 -0.0511582 3.45194e-21)
        0.225             (0.925488 0.0515994 -5.47249e-21)             (0.925488 -0.0515994 3.39709e-21)
         0.23             (0.924955 0.0520415 -5.38603e-21)             (0.924955 -0.0520415 3.34385e-21)
        0.235             (0.924424 0.0524845 -5.30269e-21)             (0.924424 -0.0524845 3.29255e-21)
         0.24             (0.923894 0.0529285 -5.22203e-21)             (0.923894 -0.0529285 3.24291e-21)
        0.245             (0.923365 0.0533736 -5.14384e-21)             (0.923365 -0.0533736 3.19479e-21)
         0.25             (0.922838 0.0538199 -5.06825e-21)             (0.922838 -0.0538199 3.14829e-21)
        0.255             (0.922311 0.0542674 -4.99477e-21)             (0.922311 -0.0542674 3.1031e-21)
         0.26             (0.921785 0.0547162 -4.92414e-21)             (0.921785 -0.0547162 3.05967e-21)
        0.265             (0.92126 0.0551664 -4.85508e-21)             (0.92126 -0.0551664 3.01722e-21)
         0.27             (0.920736 0.055618 -4.78803e-21)             (0.920736 -0.055618 2.97601e-21)
        0.275             (0.920212 0.0560711 -4.72293e-21)             (0.920212 -0.0560711 2.93601e-21)
         0.28             (0.919689 0.0565257 -4.65972e-21)             (0.919689 -0.0565257 2.89719e-21)
        0.285             (0.919167 0.0569819 -4.59827e-21)             (0.919167 -0.0569819 2.85945e-21)
         0.29             (0.918644 0.0574398 -4.53855e-21)             (0.918644 -0.0574398 2.82279e-21)
        0.295             (0.918123 0.0578993 -4.47993e-21)             (0.918123 -0.0578993 2.78682e-21)
          0.3             (0.917601 0.0583606 -4.42332e-21)             (0.917601 -0.0583606 2.75208e-21)
        0.305             (0.91708 0.0588237 -4.36813e-21)             (0.91708 -0.0588236 2.71824e-21)
         0.31             (0.916559 0.0592886 -4.31443e-21)             (0.916559 -0.0592886 2.68532e-21)
        0.315             (0.916038 0.0597554 -4.26202e-21)             (0.916038 -0.0597553 2.65319e-21)
         0.32             (0.915518 0.0602241 -4.21091e-21)             (0.915518 -0.0602241 2.62188e-21)
        0.325             (0.914997 0.0606947 -4.16097e-21)             (0.914997 -0.0606947 2.59129e-21)
         0.33             (0.914477 0.0611674 -4.11252e-21)             (0.914476 -0.0611674 2.56163e-21)
        0.335             (0.913956 0.0616421 -4.065e-21)             (0.913956 -0.0616421 2.53254e-21)
         0.34             (0.913435 0.0621189 -4.01861e-21)             (0.913435 -0.0621189 2.50416e-21)
        0.345             (0.912914 0.0625978 -3.97328e-21)             (0.912914 -0.0625978 2.47644e-21)
         0.35             (0.912394 0.0630789 -3.92945e-21)             (0.912394 -0.0630789 2.44965e-21)
        0.355             (0.911872 0.0635621 -3.88651e-21)             (0.911872 -0.0635621 2.42341e-21)
         0.36             (0.911351 0.0640476 -3.84429e-21)             (0.911351 -0.0640476 2.39763e-21)
        0.365             (0.910829 0.0645352 -3.80298e-21)             (0.910829 -0.0645352 2.37241e-21)
         0.37             (0.910308 0.0650252 -3.76278e-21)             (0.910308 -0.0650252 2.34788e-21)
        0.375             (0.909785 0.0655174 -3.72344e-21)             (0.909785 -0.0655174 2.32388e-21)
         0.38             (0.909263 0.066012 -3.68518e-21)             (0.909263 -0.066012 2.30056e-21)
        0.385             (0.90874 0.0665089 -3.64725e-21)             (0.90874 -0.0665089 2.27744e-21)
         0.39             (0.908216 0.0670082 -3.61017e-21)             (0.908216 -0.0670082 2.25486e-21)
        0.395             (0.907693 0.0675098 -3.57421e-21)             (0.907693 -0.0675098 2.23297e-21)
          0.4             (0.907168 0.0680139 -3.53899e-21)             (0.907168 -0.0680139 2.21154e-21)
        0.405             (0.906643 0.0685204 -3.5045e-21)             (0.906643 -0.0685204 2.19057e-21)
         0.41             (0.906118 0.0690294 -3.47071e-21)             (0.906118 -0.0690293 2.17004e-21)
        0.415             (0.905592 0.0695408 -3.43764e-21)             (0.905592 -0.0695408 2.14995e-21)
         0.42             (0.905066 0.0700547 -3.40541e-21)             (0.905066 -0.0700546 2.13039e-21)
        0.425             (0.904539 0.070571 -3.37371e-21)             (0.904539 -0.070571 2.11116e-21)
         0.43             (0.904011 0.0710899 -3.34267e-21)             (0.904011 -0.0710899 2.09234e-21)
        0.435             (0.903482 0.0716113 -3.31229e-21)             (0.903482 -0.0716113 2.07393e-21)
         0.44             (0.902953 0.0721353 -3.28251e-21)             (0.902953 -0.0721353 2.05591e-21)
        0.445             (0.902423 0.0726617 -3.25338e-21)             (0.902423 -0.0726617 2.03828e-21)
         0.45             (0.901893 0.0731907 -3.2248e-21)             (0.901893 -0.0731907 2.021e-21)
        0.455             (0.901362 0.0737223 -3.1967e-21)             (0.901362 -0.0737223 2.00402e-21)
         0.46             (0.900829 0.0742564 -3.16949e-21)             (0.900829 -0.0742564 1.9876e-21)
        0.465             (0.900297 0.0747931 -3.14242e-21)             (0.900297 -0.0747931 1.97126e-21)
         0.47             (0.899763 0.0753323 -3.11658e-21)             (0.899763 -0.0753323 1.9557e-21)
        0.475             (0.899228 0.0758741 -3.09094e-21)             (0.899228 -0.0758741 1.94026e-21)
         0.48             (0.898693 0.0764185 -3.06588e-21)             (0.898693 -0.0764185 1.92518e-21)
        0.485             (0.898156 0.0769654 -3.04111e-21)             (0.898156 -0.0769654 1.91029e-21)
         0.49             (0.897619 0.0775149 -3.01689e-21)             (0.897619 -0.0775149 1.89574e-21)
        0.495             (0.897081 0.0780669 -2.99317e-21)             (0.897081 -0.0780669 1.8815e-21)
          0.5             (0.896542 0.0786214 -2.96972e-21)             (0.896542 -0.0786214 1.86743e-21)
        0.505             (0.896002 0.0791785 -2.94706e-21)             (0.896002 -0.0791785 1.85386e-21)
         0.51             (0.895461 0.0797381 -2.92488e-21)             (0.895461 -0.0797381 1.84059e-21)
        0.515             (0.894918 0.0803003 -2.9032e-21)             (0.894918 -0.0803003 1.82763e-21)
         0.52             (0.894375 0.0808649 -2.88149e-21)             (0.894375 -0.0808649 1.81466e-21)
        0.525             (0.893831 0.081432 -2.86074e-21)             (0.893831 -0.081432 1.80229e-21)
         0.53             (0.893286 0.0820016 -2.84027e-21)             (0.893286 -0.0820016 1.79009e-21)
        0.535             (0.892739 0.0825737 -2.82028e-21)             (0.892739 -0.0825737 1.7782e-21)
         0.54             (0.892192 0.0831482 -2.8007e-21)             (0.892192 -0.0831482 1.76657e-21)
        0.545             (0.891643 0.0837251 -2.78151e-21)             (0.891643 -0.0837251 1.75517e-21)
         0.55             (0.891093 0.0843044 -2.76282e-21)             (0.891093 -0.0843044 1.7441e-21)
        0.555             (0.890542 0.0848862 -2.74452e-21)             (0.890542 -0.0848861 1.73327e-21)
         0.56             (0.88999 0.0854702 -2.72658e-21)             (0.88999 -0.0854702 1.72267e-21)
        0.565             (0.889437 0.0860567 -2.70903e-21)             (0.889437 -0.0860566 1.71231e-21)
         0.57             (0.888882 0.0866454 -2.69188e-21)             (0.888882 -0.0866454 1.7022e-21)
        0.575             (0.888326 0.0872364 -2.6751e-21)             (0.888326 -0.0872364 1.69233e-21)
         0.58             (0.887769 0.0878297 -2.6587e-21)             (0.887769 -0.0878297 1.6827e-21)
        0.585             (0.88721 0.0884252 -2.64269e-21)             (0.88721 -0.0884252 1.67331e-21)
         0.59             (0.886651 0.0890229 -2.62699e-21)             (0.886651 -0.0890229 1.66411e-21)
        0.595             (0.886089 0.0896228 -2.61193e-21)             (0.886089 -0.0896228 1.65532e-21)
          0.6             (0.885527 0.0902248 -2.59698e-21)             (0.885527 -0.0902248 1.6466e-21)
        0.605             (0.884963 0.090829 -2.58239e-21)             (0.884963 -0.0908289 1.63811e-21)
         0.61             (0.884398 0.0914351 -2.56821e-21)             (0.884398 -0.0914351 1.62987e-21)
        0.615             (0.883831 0.0920434 -2.55434e-21)             (0.883831 -0.0920434 1.62184e-21)
         0.62             (0.883263 0.0926536 -2.54082e-21)             (0.883263 -0.0926536 1.61402e-21)
        0.625             (0.882693 0.0932658 -2.52763e-21)             (0.882693 -0.0932657 1.60641e-21)
         0.63             (0.882122 0.0938798 -2.51473e-21)             (0.882122 -0.0938798 1.59899e-21)
        0.635             (0.88155 0.0944958 -2.50225e-21)             (0.88155 -0.0944958 1.59183e-21)
         0.64             (0.880975 0.0951136 -2.49021e-21)             (0.880975 -0.0951136 1.58495e-21)
        0.645             (0.8804 0.0957332 -2.4783e-21)             (0.8804 -0.0957332 1.57815e-21)
         0.65             (0.879823 0.0963545 -2.46691e-21)             (0.879823 -0.0963545 1.57168e-21)
        0.655             (0.879244 0.0969775 -2.45589e-21)             (0.879244 -0.0969775 1.56543e-21)
         0.66             (0.878664 0.0976022 -2.44504e-21)             (0.878664 -0.0976022 1.55931e-21)
        0.665             (0.878082 0.0982286 -2.43469e-21)             (0.878082 -0.0982285 1.55349e-21)
         0.67             (0.877498 0.0988564 -2.42436e-21)             (0.877498 -0.0988564 1.54769e-21)
        0.675             (0.876913 0.0994858 -2.41462e-21)             (0.876913 -0.0994858 1.54226e-21)
         0.68             (0.876326 0.100117 -2.40497e-21)             (0.876326 -0.100117 1.5369e-21)
        0.685             (0.875737 0.100749 -2.39567e-21)             (0.875737 -0.100749 1.53175e-21)
         0.69             (0.875147 0.101383 -2.38668e-21)             (0.875147 -0.101383 1.5268e-21)
        0.695             (0.874555 0.102017 -2.37803e-21)             (0.874555 -0.102017 1.52205e-21)
          0.7             (0.873961 0.102654 -2.36967e-21)             (0.873961 -0.102654 1.5175e-21)
        0.705             (0.873365 0.103291 -2.36163e-21)             (0.873365 -0.103291 1.51315e-21)
         0.71             (0.872768 0.10393 -2.35388e-21)             (0.872768 -0.10393 1.50898e-21)
        0.715             (0.872169 0.104569 -2.34642e-21)             (0.872169 -0.104569 1.50499e-21)
         0.72             (0.871568 0.10521 -2.33926e-21)             (0.871568 -0.10521 1.5012e-21)
        0.725             (0.870965 0.105852 -2.33258e-21)             (0.870965 -0.105852 1.49771e-21)
         0.73             (0.87036 0.106494 -2.32583e-21)             (0.87036 -0.106494 1.49417e-21)
        0.735             (0.869754 0.107138 -2.3197e-21)             (0.869754 -0.107138 1.49103e-21)
         0.74             (0.869145 0.107782 -2.31352e-21)             (0.869145 -0.107782 1.48785e-21)
        0.745             (0.868535 0.108427 -2.30788e-21)             (0.868535 -0.108427 1.48502e-21)
         0.75             (0.867923 0.109073 -2.30242e-21)             (0.867922 -0.109073 1.4823e-21)
        0.755             (0.867308 0.109719 -2.29739e-21)             (0.867308 -0.109719 1.47985e-21)
         0.76             (0.866692 0.110366 -2.29265e-21)             (0.866692 -0.110366 1.47759e-21)
        0.765             (0.866074 0.111014 -2.28806e-21)             (0.866074 -0.111014 1.47542e-21)
         0.77             (0.865454 0.111662 -2.28384e-21)             (0.865454 -0.111662 1.47349e-21)
        0.775             (0.864831 0.11231 -2.27993e-21)             (0.864831 -0.11231 1.47175e-21)
         0.78             (0.864207 0.112959 -2.27623e-21)             (0.864207 -0.112959 1.47014e-21)
        0.785             (0.863581 0.113608 -2.2728e-21)             (0.863581 -0.113608 1.46871e-21)
         0.79             (0.862952 0.114257 -2.26965e-21)             (0.862952 -0.114257 1.46744e-21)
        0.795             (0.862322 0.114907 -2.26679e-21)             (0.862322 -0.114907 1.46637e-21)
          0.8             (0.86169 0.115556 -2.26429e-21)             (0.86169 -0.115556 1.46552e-21)
        0.805             (0.861055 0.116206 -2.26198e-21)             (0.861055 -0.116206 1.4648e-21)
         0.81             (0.860418 0.116855 -2.25995e-21)             (0.860418 -0.116855 1.46425e-21)
        0.815             (0.859779 0.117505 -2.2582e-21)             (0.859779 -0.117505 1.46388e-21)
         0.82             (0.859138 0.118154 -2.25672e-21)             (0.859138 -0.118154 1.46367e-21)
        0.825             (0.858495 0.118803 -2.2555e-21)             (0.858495 -0.118803 1.46364e-21)
         0.83             (0.85785 0.119452 -2.25447e-21)             (0.85785 -0.119452 1.46372e-21)
        0.835             (0.857202 0.1201 -2.25389e-21)             (0.857202 -0.1201 1.46408e-21)
         0.84             (0.856552 0.120748 -2.25363e-21)             (0.856552 -0.120748 1.46465e-21)
        0.845             (0.8559 0.121396 -2.25354e-21)             (0.8559 -0.121396 1.46533e-21)
         0.85             (0.855246 0.122043 -2.25376e-21)             (0.855246 -0.122043 1.4662e-21)
        0.855             (0.85459 0.12269 -2.25415e-21)             (0.85459 -0.12269 1.46718e-21)
         0.86             (0.853931 0.123336 -2.25482e-21)             (0.853931 -0.123336 1.46833e-21)
        0.865             (0.85327 0.123981 -2.25576e-21)             (0.85327 -0.123981 1.46966e-21)
         0.87             (0.852607 0.124625 -2.25691e-21)             (0.852607 -0.124625 1.47112e-21)
        0.875             (0.851941 0.125269 -2.25852e-21)             (0.851941 -0.125269 1.47287e-21)
         0.88             (0.851273 0.125912 -2.26027e-21)             (0.851273 -0.125912 1.4747e-21)
        0.885             (0.850603 0.126554 -2.26227e-21)             (0.850603 -0.126554 1.4767e-21)
         0.89             (0.849931 0.127195 -2.26452e-21)             (0.849931 -0.127195 1.47885e-21)
        0.895             (0.849256 0.127834 -2.26707e-21)             (0.849256 -0.127834 1.48119e-21)
          0.9             (0.848579 0.128473 -2.26998e-21)             (0.848579 -0.128473 1.48375e-21)
        0.905             (0.8479 0.12911 -2.27315e-21)             (0.8479 -0.12911 1.48649e-21)
         0.91             (0.847218 0.129747 -2.27648e-21)             (0.847218 -0.129747 1.48932e-21)
        0.915             (0.846534 0.130382 -2.28005e-21)             (0.846534 -0.130382 1.4923e-21)
         0.92             (0.845848 0.131015 -2.2839e-21)             (0.845848 -0.131015 1.49546e-21)
        0.925             (0.845159 0.131647 -2.28799e-21)             (0.845159 -0.131647 1.49877e-21)
         0.93             (0.844468 0.132278 -2.29243e-21)             (0.844468 -0.132278 1.5023e-21)
        0.935             (0.843774 0.132907 -2.29711e-21)             (0.843774 -0.132907 1.50598e-21)
         0.94             (0.843079 0.133535 -2.30197e-21)             (0.843079 -0.133535 1.50977e-21)
        0.945             (0.84238 0.134161 -2.3073e-21)             (0.84238 -0.134161 1.51386e-21)
         0.95             (0.84168 0.134785 -2.31287e-21)             (0.84168 -0.134785 1.51809e-21)
        0.955             (0.840977 0.135408 -2.31861e-21)             (0.840977 -0.135408 1.52244e-21)
         0.96             (0.840271 0.136029 -2.32472e-21)             (0.840271 -0.136029 1.52702e-21)
        0.965             (0.839564 0.136648 -2.33087e-21)             (0.839564 -0.136648 1.53162e-21)
         0.97             (0.838854 0.137265 -2.3373e-21)             (0.838854 -0.137265 1.53639e-21)
        0.975             (0.838141 0.13788 -2.34401e-21)             (0.838141 -0.13788 1.54134e-21)
         0.98             (0.837426 0.138493 -2.35098e-21)             (0.837426 -0.138493 1.54646e-21)
        0.985             (0.836709 0.139104 -2.35822e-21)             (0.836709 -0.139104 1.55175e-21)
         0.99             (0.835989 0.139713 -2.36572e-21)             (0.835989 -0.139713 1.55719e-21)
        0.995             (0.835267 0.140319 -2.37348e-21)             (0.835267 -0.140319 1.5628e-21)
            1             (0.834542 0.140924 -2.3815e-21)             (0.834542 -0.140924 1.56857e-21)
        1.005             (0.833816 0.141526 -2.38976e-21)             (0.833816 -0.141526 1.5745e-21)
         1.01             (0.833086 0.142126 -2.39829e-21)             (0.833086 -0.142126 1.58059e-21)
        1.015             (0.832355 0.142724 -2.40706e-21)             (0.832355 -0.142724 1.58683e-21)
         1.02             (0.831621 0.143319 -2.4161e-21)             (0.831621 -0.143319 1.59323e-21)
        1.025             (0.830884 0.143911 -2.42538e-21)             (0.830884 -0.143911 1.59979e-21)
         1.03             (0.830145 0.144502 -2.43488e-21)             (0.830145 -0.144502 1.60649e-21)
        1.035             (0.829404 0.145089 -2.44462e-21)             (0.829404 -0.145089 1.61333e-21)
         1.04             (0.828661 0.145674 -2.45465e-21)             (0.828661 -0.145674 1.62036e-21)
        1.045             (0.827915 0.146257 -2.46532e-21)             (0.827915 -0.146257 1.62777e-21)
         1.05             (0.827167 0.146836 -2.47584e-21)             (0.827167 -0.146836 1.63511e-21)
        1.055             (0.826416 0.147413 -2.48659e-21)             (0.826416 -0.147413 1.64258e-21)
         1.06             (0.825663 0.147988 -2.49758e-21)             (0.825663 -0.147988 1.6502e-21)
        1.065             (0.824908 0.148559 -2.50883e-21)             (0.824908 -0.148559 1.65798e-21)
         1.07             (0.82415 0.149128 -2.52057e-21)             (0.82415 -0.149128 1.66607e-21)
        1.075             (0.82339 0.149693 -2.53245e-21)             (0.82339 -0.149693 1.67424e-21)
         1.08             (0.822628 0.150256 -2.54431e-21)             (0.822628 -0.150256 1.6824e-21)
        1.085             (0.821863 0.150816 -2.55661e-21)             (0.821863 -0.150816 1.69084e-21)
         1.09             (0.821096 0.151373 -2.56913e-21)             (0.821096 -0.151373 1.69941e-21)
        1.095             (0.820327 0.151927 -2.58188e-21)             (0.820327 -0.151927 1.70812e-21)
          1.1             (0.819556 0.152477 -2.59482e-21)             (0.819556 -0.152477 1.71695e-21)
        1.105             (0.818782 0.153025 -2.60814e-21)             (0.818782 -0.153025 1.72602e-21)
         1.11             (0.818006 0.153569 -2.62166e-21)             (0.818006 -0.153569 1.7352e-21)
        1.115             (0.817228 0.15411 -2.63543e-21)             (0.817228 -0.15411 1.74455e-21)
         1.12             (0.816447 0.154648 -2.64949e-21)             (0.816447 -0.154648 1.75407e-21)
        1.125             (0.815665 0.155183 -2.66378e-21)             (0.815665 -0.155183 1.76373e-21)
         1.13             (0.81488 0.155714 -2.67807e-21)             (0.81488 -0.155714 1.77339e-21)
        1.135             (0.814093 0.156242 -2.69285e-21)             (0.814093 -0.156242 1.78336e-21)
         1.14             (0.813303 0.156767 -2.7078e-21)             (0.813303 -0.156767 1.79342e-21)
        1.145             (0.812512 0.157289 -2.72301e-21)             (0.812512 -0.157289 1.80365e-21)
         1.15             (0.811718 0.157807 -2.73849e-21)             (0.811718 -0.157807 1.81405e-21)
        1.155             (0.810922 0.158321 -2.75433e-21)             (0.810922 -0.158321 1.82467e-21)
         1.16             (0.810124 0.158832 -2.77025e-21)             (0.810124 -0.158832 1.83533e-21)
        1.165             (0.809324 0.15934 -2.78641e-21)             (0.809324 -0.15934 1.84615e-21)
         1.17             (0.808522 0.159844 -2.80282e-21)             (0.808522 -0.159844 1.85712e-21)
        1.175             (0.807718 0.160344 -2.81946e-21)             (0.807718 -0.160344 1.86822e-21)
         1.18             (0.806911 0.160841 -2.83633e-21)             (0.806911 -0.160841 1.87947e-21)
        1.185             (0.806103 0.161334 -2.8534e-21)             (0.806103 -0.161334 1.89084e-21)
         1.19             (0.805292 0.161824 -2.87077e-21)             (0.805292 -0.161824 1.90239e-21)
        1.195             (0.80448 0.16231 -2.88837e-21)             (0.80448 -0.16231 1.91409e-21)
          1.2             (0.803665 0.162792 -2.90646e-21)             (0.803665 -0.162792 1.92609e-21)
        1.205             (0.802849 0.16327 -2.92452e-21)             (0.802849 -0.16327 1.93806e-21)
         1.21             (0.80203 0.163745 -2.94276e-21)             (0.80203 -0.163745 1.95015e-21)
        1.215             (0.80121 0.164216 -2.96124e-21)             (0.80121 -0.164216 1.96237e-21)
         1.22             (0.800387 0.164684 -2.97992e-21)             (0.800387 -0.164684 1.97473e-21)
        1.225             (0.799563 0.165147 -2.99899e-21)             (0.799563 -0.165147 1.98732e-21)
         1.23             (0.798737 0.165607 -3.01817e-21)             (0.798737 -0.165607 1.99998e-21)
        1.235             (0.797908 0.166063 -3.03758e-21)             (0.797908 -0.166063 2.01278e-21)
         1.24             (0.797078 0.166515 -3.05723e-21)             (0.797078 -0.166515 2.02572e-21)
        1.245             (0.796246 0.166963 -3.0771e-21)             (0.796246 -0.166963 2.0388e-21)
         1.25             (0.795413 0.167407 -3.09719e-21)             (0.795413 -0.167407 2.05201e-21)
        1.255             (0.794577 0.167848 -3.11749e-21)             (0.794577 -0.167848 2.06535e-21)
         1.26             (0.79374 0.168284 -3.13799e-21)             (0.79374 -0.168284 2.0788e-21)
        1.265             (0.7929 0.168717 -3.15885e-21)             (0.7929 -0.168717 2.09249e-21)
         1.27             (0.792059 0.169146 -3.17988e-21)             (0.792059 -0.169146 2.10627e-21)
        1.275             (0.791217 0.16957 -3.20107e-21)             (0.791217 -0.16957 2.12014e-21)
         1.28             (0.790372 0.169991 -3.22248e-21)             (0.790372 -0.169991 2.13415e-21)
        1.285             (0.789526 0.170408 -3.24411e-21)             (0.789526 -0.170408 2.14829e-21)
         1.29             (0.788678 0.17082 -3.26596e-21)             (0.788678 -0.17082 2.16257e-21)
        1.295             (0.787829 0.171229 -3.28792e-21)             (0.787829 -0.171229 2.17691e-21)
          1.3             (0.786978 0.171634 -3.31018e-21)             (0.786978 -0.171634 2.19143e-21)
        1.305             (0.786125 0.172035 -3.33271e-21)             (0.786125 -0.172035 2.20612e-21)
         1.31             (0.785271 0.172431 -3.35536e-21)             (0.785271 -0.172431 2.22087e-21)
        1.315             (0.784415 0.172824 -3.37834e-21)             (0.784415 -0.172824 2.23583e-21)
         1.32             (0.783558 0.173213 -3.40152e-21)             (0.783558 -0.173213 2.25091e-21)
        1.325             (0.782699 0.173597 -3.42484e-21)             (0.782699 -0.173597 2.26607e-21)
         1.33             (0.781838 0.173977 -3.44839e-21)             (0.781838 -0.173978 2.28136e-21)
        1.335             (0.780976 0.174354 -3.47212e-21)             (0.780976 -0.174354 2.29677e-21)
         1.34             (0.780113 0.174726 -3.49622e-21)             (0.780113 -0.174726 2.3124e-21)
        1.345             (0.779248 0.175094 -3.52035e-21)             (0.779248 -0.175094 2.32805e-21)
         1.35             (0.778382 0.175459 -3.54465e-21)             (0.778382 -0.175459 2.34379e-21)
        1.355             (0.777514 0.175819 -3.56917e-21)             (0.777514 -0.175819 2.35967e-21)
         1.36             (0.776645 0.176174 -3.594e-21)             (0.776645 -0.176174 2.37574e-21)
        1.365             (0.775775 0.176526 -3.61904e-21)             (0.775775 -0.176526 2.39193e-21)
         1.37             (0.774903 0.176874 -3.6442e-21)             (0.774903 -0.176874 2.40819e-21)
        1.375             (0.77403 0.177218 -3.66952e-21)             (0.77403 -0.177218 2.42454e-21)
         1.38             (0.773156 0.177557 -3.695e-21)             (0.773156 -0.177557 2.44099e-21)
        1.385             (0.772281 0.177893 -3.72078e-21)             (0.772281 -0.177893 2.45762e-21)
         1.39             (0.771404 0.178224 -3.7468e-21)             (0.771404 -0.178224 2.47439e-21)
        1.395             (0.770526 0.178551 -3.7729e-21)             (0.770526 -0.178551 2.49121e-21)
          1.4             (0.769647 0.178874 -3.7992e-21)             (0.769647 -0.178874 2.50815e-21)
        1.405             (0.768766 0.179193 -3.8257e-21)             (0.768766 -0.179193 2.5252e-21)
         1.41             (0.767885 0.179508 -3.85233e-21)             (0.767885 -0.179508 2.54234e-21)
        1.415             (0.767002 0.179819 -3.87931e-21)             (0.767002 -0.179819 2.55968e-21)
         1.42             (0.766119 0.180125 -3.90637e-21)             (0.766119 -0.180125 2.57707e-21)
        1.425             (0.765234 0.180428 -3.93368e-21)             (0.765234 -0.180428 2.5946e-21)
         1.43             (0.764348 0.180726 -3.96112e-21)             (0.764348 -0.180726 2.61222e-21)