/*--------------------------------*- C++ -*----------------------------------*\
  =========                 |
  \\      /  F ield         | OpenFOAM: The Open Source CFD Toolbox
   \\    /   O peration     | Website:  https://openfoam.org
    \\  /    A nd           | Version:  7
     \\/     M anipulation  |
\*---------------------------------------------------------------------------*/
FoamFile
{
    version     2.0;
    format      ascii;
    class       volScalarField;
    location    "20";
    object      p;
}
// * * * * * * * * * * * * * * * * * * * * * * * * * * * * * * * * * * * * * //

dimensions      [0 2 -2 0 0 0 0];

internalField   nonuniform List<scalar> 
8330
(
-0.0985925
-0.100188
-0.101863
-0.103637
-0.105528
-0.10387
-0.10756
-0.105522
-0.109757
-0.107291
-0.112136
-0.109196
-0.114713
-0.111261
-0.107218
-0.117518
-0.113495
-0.109067
-0.120574
-0.115917
-0.111094
-0.105535
-0.123902
-0.118542
-0.113315
-0.107262
-0.127519
-0.121388
-0.115749
-0.109171
-0.131443
-0.124472
-0.11841
-0.111267
-0.104849
-0.13569
-0.12781
-0.121312
-0.113555
-0.106542
-0.140272
-0.131418
-0.124466
-0.116036
-0.10838
-0.100591
-0.1452
-0.135309
-0.127878
-0.118713
-0.110358
-0.101589
-0.091853
-0.150481
-0.139498
-0.131549
-0.121593
-0.112457
-0.102541
-0.0914452
-0.156121
-0.143992
-0.135478
-0.124678
-0.114643
-0.103402
-0.0908496
-0.0774904
-0.162121
-0.148798
-0.13966
-0.127965
-0.116868
-0.104128
-0.090046
-0.0753898
-0.0609279
-0.168477
-0.153911
-0.144091
-0.131441
-0.119078
-0.104681
-0.0890164
-0.0730775
-0.0576686
-0.0433113
-0.175181
-0.159322
-0.148765
-0.135071
-0.12121
-0.105022
-0.0877447
-0.0705471
-0.0542277
-0.0392171
-0.025578
-0.182219
-0.165011
-0.153674
-0.138804
-0.123206
-0.105117
-0.086215
-0.0677908
-0.0505982
-0.034967
-0.0209112
-0.00848088
-0.189567
-0.170951
-0.158802
-0.14257
-0.125007
-0.104933
-0.0844119
-0.0647991
-0.0467715
-0.0305512
-0.0160993
-0.00335859
0.00819941
-0.197193
-0.177108
-0.164122
-0.146289
-0.126555
-0.10444
-0.0823192
-0.0615607
-0.042737
-0.0259592
-0.0111319
0.00190044
0.0136027
0.0232567
-0.205053
-0.183442
-0.169588
-0.149872
-0.127797
-0.103607
-0.07992
-0.058063
-0.0384828
-0.0211792
-0.00599854
0.00730488
0.0191339
0.0289428
-0.213087
-0.189908
-0.175133
-0.153232
-0.128678
-0.102406
-0.077197
-0.0542918
-0.0339959
-0.0161994
-0.00068845
0.0128632
0.0248001
0.0347531
-0.221225
-0.196455
-0.180667
-0.156284
-0.129147
-0.10081
-0.0741316
-0.0502319
-0.0292627
-0.0110074
0.00480879
0.0185837
0.0306086
0.0406929
-0.229381
-0.203026
-0.186083
-0.158944
-0.129155
-0.0987892
-0.0707047
-0.0458673
-0.0242691
-0.00559073
0.0105034
0.0244742
0.0365659
0.046767
-0.237458
-0.209555
-0.191255
-0.161133
-0.128655
-0.0963169
-0.0668966
-0.0411813
-0.0190007
6.26608e-05
0.0164051
0.0305422
0.0426783
0.0529796
-0.245348
-0.215965
-0.196054
-0.162775
-0.127602
-0.0933654
-0.0626872
-0.0361573
-0.0134434
0.00596461
0.0225231
0.0367945
0.0489516
0.0593345
-0.252937
-0.222168
-0.200346
-0.163797
-0.125953
-0.0899078
-0.0580562
-0.0307783
-0.00758324
0.0121264
0.028866
0.0432378
0.0553911
0.0658348
-0.260104
-0.228064
-0.204
-0.164129
-0.12367
-0.0859181
-0.0529837
-0.025028
-0.00140703
0.0185585
0.0354417
0.0498776
0.0620016
0.0724831
-0.266728
-0.23354
-0.206897
-0.163704
-0.120715
-0.081371
-0.0474503
-0.0188907
0.00509777
0.0252707
0.0422571
0.0567194
0.0687873
0.0792809
-0.272685
-0.238473
-0.208924
-0.16246
-0.117054
-0.0762428
-0.0414374
-0.0123516
0.0119427
0.0322718
0.0493185
0.0637675
0.0757516
0.0862287
-0.277855
-0.242731
-0.209982
-0.16034
-0.112655
-0.0705113
-0.0349274
-0.00539692
0.0191382
0.0395695
0.0566311
0.0710259
0.0828965
0.0933251
-0.28212
-0.246178
-0.209983
-0.157292
-0.107489
-0.0641562
-0.0279044
0.00198571
0.0266934
0.0471703
0.0641993
0.0784979
0.0902226
0.100567
-0.285366
-0.248679
-0.208852
-0.153272
-0.101531
-0.0571592
-0.0203541
0.00980712
0.0346162
0.0550794
0.0720262
0.0861856
0.0977301
0.107949
-0.287483
-0.250099
-0.206524
-0.148239
-0.094758
-0.0495043
-0.012264
0.0180764
0.0429126
0.0633006
0.0801134
0.0940898
0.10542
0.115475
-0.28837
-0.250313
-0.202944
-0.142164
-0.0871514
-0.041178
-0.00362398
0.0268006
0.051587
0.0718364
0.0884624
0.10221
0.113292
0.123173
-0.287929
-0.249205
-0.198067
-0.135021
-0.0786956
-0.0321696
0.00557374
0.0359844
0.0606421
0.0806886
0.0970755
0.110548
0.121333
0.131089
-0.286073
-0.246674
-0.191854
-0.12679
-0.0693793
-0.0224712
0.015334
0.0456308
0.0700795
0.089858
0.105955
0.11911
0.129524
0.13922
-0.282721
-0.242633
-0.184274
-0.117459
-0.059195
-0.0120785
0.0256592
0.0557412
0.0799004
0.0993427
0.115095
0.127891
0.137884
0.147416
-0.2778
-0.23701
-0.175305
-0.107022
-0.0481396
-0.000990244
0.0365503
0.0663176
0.0901035
0.109136
0.124482
0.136832
0.146479
0.155692
-0.271248
-0.229749
-0.164936
-0.0954763
-0.0362143
0.0107931
0.0480092
0.0773588
0.100678
0.119224
0.134109
0.145966
0.155256
0.164078
-0.263011
-0.220807
-0.15316
-0.0828285
-0.0234249
0.0232706
0.0600365
0.0888503
0.111599
0.129612
0.143972
0.155297
0.164188
0.172583
-0.253045
-0.210158
-0.139984
-0.0690889
-0.00977891
0.0364375
0.0726175
0.100757
0.122886
0.140291
0.154066
0.164816
0.173263
0.181204
-0.241319
-0.197789
-0.125419
-0.0542718
0.00471774
0.0502739
0.0857051
0.113107
0.134523
0.15125
0.16438
0.174515
0.182474
0.189932
-0.227811
-0.183702
-0.109486
-0.0383954
0.0200586
0.0647347
0.0993117
0.12588
0.146495
0.162474
0.174903
0.184381
0.191813
0.198756
-0.21251
-0.167912
-0.0922108
-0.0214859
0.0362138
0.0798078
0.113425
0.139057
0.158787
0.173951
0.185623
0.194402
0.201271
0.207663
-0.195421
-0.150446
-0.0736292
-0.00357992
0.053099
0.0955267
0.128024
0.152617
0.171382
0.185665
0.196527
0.204565
0.210837
0.216643
-0.176556
-0.131342
-0.0537843
0.0152826
0.0707185
0.111836
0.143085
0.166539
0.184262
0.1976
0.207598
0.214858
0.2205
0.22568
-0.155942
-0.11065
-0.0327229
0.0350576
0.0890465
0.1287
0.158583
0.1808
0.197406
0.209737
0.218821
0.225266
0.230245
0.234761
-0.133622
-0.0884476
-0.0104763
0.0557047
0.108045
0.146085
0.174487
0.195376
0.210791
0.222056
0.230178
0.235773
0.240058
0.243869
-0.109651
-0.0648603
0.0129543
0.0771888
0.12767
0.163953
0.190765
0.210238
0.224394
0.234537
0.24165
0.246363
0.249923
0.252981
-0.084099
-0.0400083
0.0375419
0.0994703
0.147872
0.182264
0.207383
0.225358
0.238189
0.247156
0.253218
0.25702
0.259819
0.262076
-0.0570365
-0.013821
0.0630547
0.12248
0.1686
0.200974
0.224304
0.240704
0.25215
0.259892
0.264862
0.267726
0.269732
0.271127
-0.0285449
0.0138671
0.0891587
0.146125
0.189801
0.220037
0.24149
0.256243
0.266249
0.272717
0.276559
0.278465
0.279648
0.280117
0.00126519
0.0427731
0.115952
0.170324
0.211418
0.239407
0.258899
0.271941
0.280454
0.285608
0.288286
0.289224
0.289557
0.289021
0.0322979
0.0727382
0.143416
0.195001
0.233391
0.259032
0.27649
0.287762
0.294737
0.298535
0.300025
0.299992
0.299433
0.297732
0.0645481
0.103502
0.17148
0.220082
0.255658
0.278862
0.294217
0.303668
0.309063
0.311472
0.31176
0.310765
0.309202
0.305969
0.0977949
0.134996
0.200053
0.245493
0.278153
0.298842
0.312036
0.319621
0.323401
0.324394
0.32348
0.321524
0.318748
0.313519
0.131898
0.167118
0.229037
0.271155
0.30081
0.318916
0.329899
0.335581
0.337715
0.337274
0.335166
0.332213
0.328
0.32093
0.166722
0.199748
0.258329
0.296987
0.323561
0.339027
0.347759
0.351506
0.351972
0.350087
0.346782
0.342744
0.336967
0.329625
0.202125
0.23276
0.287825
0.322907
0.346337
0.359118
0.365566
0.367355
0.366136
0.362803
0.358285
0.353086
0.345995
0.338643
0.237955
0.266023
0.317416
0.348829
0.369065
0.379129
0.38327
0.383087
0.380174
0.375392
0.369642
0.363263
0.355076
0.347544
0.274062
0.299403
0.346994
0.374666
0.391676
0.399
0.400822
0.398657
0.394049
0.387819
0.380825
0.373278
0.364136
0.35627
0.310289
0.332767
0.376451
0.400332
0.414095
0.418671
0.41817
0.414025
0.407725
0.400052
0.391812
0.383122
0.373096
0.364756
0.346481
0.365981
0.405676
0.425739
0.436251
0.438081
0.435263
0.429146
0.421166
0.41206
0.402578
0.392775
0.381905
0.372994
0.38248
0.398908
0.434561
0.450799
0.458072
0.45717
0.45205
0.443979
0.434335
0.423811
0.413099
0.402213
0.39052
0.380976
0.418131
0.431415
0.462999
0.475425
0.479484
0.475877
0.468483
0.458481
0.447197
0.435274
0.423352
0.411411
0.398913
0.388696
0.453279
0.463367
0.490883
0.499531
0.500417
0.494144
0.484509
0.472609
0.459714
0.446419
0.43331
0.420343
0.407058
0.396144
0.487769
0.494635
0.518108
0.523032
0.520801
0.511911
0.500081
0.486323
0.471853
0.457215
0.442948
0.428987
0.414933
0.403312
0.521451
0.52509
0.544572
0.545844
0.540567
0.529122
0.51515
0.499582
0.483579
0.467635
0.452242
0.437318
0.422517
0.410188
0.554175
0.554608
0.570174
0.567887
0.559646
0.54572
0.52967
0.512346
0.494858
0.47765
0.461168
0.445316
0.429793
0.41676
0.585799
0.58307
0.594819
0.589081
0.577975
0.561651
0.543595
0.524577
0.505657
0.487232
0.469702
0.45296
0.436742
0.423016
0.616182
0.610359
0.618412
0.609351
0.59549
0.576863
0.556881
0.536239
0.515947
0.496354
0.477821
0.460229
0.443348
0.428945
0.645192
0.636365
0.640866
0.628624
0.612131
0.591305
0.569485
0.547295
0.525696
0.504992
0.485503
0.467105
0.449593
0.434535
0.6727
0.660982
0.662093
0.64683
0.62784
0.604929
0.581368
0.557712
0.534875
0.51312
0.492729
0.47357
0.455463
0.439774
0.698586
0.68411
0.682015
0.663904
0.642563
0.61769
0.592492
0.567458
0.543459
0.520716
0.499477
0.479607
0.460942
0.444653
0.722735
0.705656
0.700555
0.679783
0.656249
0.629546
0.602821
0.576502
0.551421
0.527758
0.505731
0.4852
0.466017
0.449162
0.745041
0.725532
0.717644
0.69441
0.668849
0.640456
0.612321
0.584817
0.558737
0.534227
0.511472
0.490334
0.470673
0.45329
0.765407
0.743658
0.733215
0.707733
0.68032
0.650383
0.620963
0.592377
0.565386
0.540103
0.516685
0.494994
0.4749
0.457029
0.783743
0.75996
0.747211
0.719701
0.690621
0.659295
0.628717
0.599159
0.571348
0.545369
0.521356
0.49917
0.478686
0.460373
0.799969
0.774373
0.759577
0.730272
0.699717
0.667161
0.635559
0.60514
0.576605
0.550012
0.525472
0.502848
0.482021
0.463313
0.814013
0.786838
0.770267
0.739407
0.707574
0.673955
0.641466
0.610303
0.581142
0.554016
0.529021
0.50602
0.484896
0.465844
0.825813
0.797306
0.77924
0.747073
0.714167
0.679654
0.64642
0.614631
0.584944
0.557371
0.531994
0.508676
0.487303
0.467961
0.835319
0.805733
0.786462
0.753241
0.71947
0.684237
0.650404
0.618111
0.588
0.560068
0.534383
0.51081
0.489237
0.469659
0.842488
0.812086
0.791904
0.757889
0.723466
0.68769
0.653404
0.620732
0.590301
0.562097
0.53618
0.512416
0.490691
0.470934
0.847289
0.816339
0.795548
0.761
0.72614
0.69
0.655412
0.622485
0.591839
0.563454
0.537382
0.513489
0.491663
0.471785
0.8497
0.818475
0.797377
0.762562
0.727483
0.69116
0.656419
0.623364
0.592611
0.564135
0.537985
0.514028
0.492153
0.472226
0.849712
0.818485
0.797386
0.762569
0.727489
0.691165
0.656423
0.623367
0.592613
0.564137
0.537986
0.51403
0.492155
0.472232
0.847323
0.816369
0.795573
0.761022
0.726158
0.690014
0.655423
0.622493
0.591846
0.563459
0.537385
0.513491
0.491665
0.471787
0.842544
0.812135
0.791947
0.757925
0.723495
0.687713
0.653422
0.620745
0.59031
0.562103
0.536183
0.512417
0.490691
0.470931
0.835397
0.8058
0.78652
0.75329
0.71951
0.684268
0.650428
0.618128
0.588011
0.560074
0.534385
0.51081
0.489234
0.469652
0.825911
0.79739
0.779313
0.747133
0.714216
0.679692
0.646449
0.614651
0.584956
0.557377
0.531995
0.508675
0.487298
0.46795
0.814129
0.786939
0.770353
0.739478
0.707631
0.673999
0.641498
0.610324
0.581154
0.554021
0.529021
0.506016
0.484889
0.465829
0.800102
0.774488
0.759675
0.730352
0.69978
0.66721
0.635593
0.605162
0.576617
0.550015
0.52547
0.502843
0.482013
0.463295
0.783891
0.760087
0.747319
0.719789
0.69069
0.659347
0.628753
0.599181
0.571359
0.545372
0.521353
0.499164
0.478677
0.460352
0.765568
0.743796
0.733332
0.707826
0.680393
0.650437
0.620999
0.592399
0.565396
0.540104
0.516681
0.494988
0.474891
0.457007
0.745212
0.725679
0.717768
0.694509
0.668925
0.64051
0.612358
0.584839
0.558746
0.534227
0.511467
0.490327
0.470664
0.453265
0.722914
0.70581
0.700685
0.679885
0.656327
0.629601
0.602857
0.576523
0.551429
0.527759
0.505726
0.485194
0.466008
0.449135
0.698771
0.68427
0.682148
0.664008
0.642642
0.617746
0.592528
0.567478
0.543467
0.520716
0.499473
0.479602
0.460934
0.444626
0.672889
0.661146
0.662229
0.646936
0.627919
0.604984
0.581404
0.557732
0.534884
0.513121
0.492725
0.473567
0.455456
0.439746
0.645383
0.636531
0.641002
0.62873
0.61221
0.591359
0.56952
0.547315
0.525704
0.504993
0.485501
0.467103
0.449588
0.434505
0.616373
0.610525
0.618549
0.609457
0.595568
0.576917
0.556915
0.536259
0.515956
0.496357
0.47782
0.460229
0.443344
0.428914
0.585987
0.583235
0.594954
0.589185
0.578052
0.561704
0.543629
0.524598
0.505668
0.487236
0.469702
0.452961
0.436741
0.422985
0.55436
0.55477
0.570308
0.567989
0.559722
0.545773
0.529704
0.512367
0.494869
0.477656
0.46117
0.44532
0.429794
0.416728
0.521631
0.525248
0.544702
0.545944
0.54064
0.529174
0.515185
0.499603
0.483592
0.467643
0.452246
0.437324
0.42252
0.410156
0.487943
0.494789
0.518235
0.523129
0.520873
0.511962
0.500116
0.486345
0.471868
0.457225
0.442954
0.428994
0.414938
0.403281
0.453446
0.463516
0.491006
0.499626
0.500488
0.494194
0.484544
0.472633
0.459731
0.44643
0.433318
0.420353
0.407066
0.396114
0.41829
0.431558
0.463118
0.475517
0.479553
0.475927
0.468518
0.458506
0.447215
0.435287
0.423362
0.411423
0.398924
0.388666
0.38263
0.399044
0.434675
0.450887
0.458139
0.457219
0.452086
0.444005
0.434355
0.423826
0.413111
0.402228
0.390535
0.380948
0.346621
0.36611
0.405785
0.425824
0.436317
0.43813
0.435299
0.429174
0.421188
0.412078
0.402592
0.392792
0.381923
0.372968
0.31042
0.332889
0.376554
0.400414
0.414159
0.41872
0.418207
0.414054
0.407749
0.400072
0.391828
0.383142
0.37312
0.364734
0.274183
0.299517
0.347093
0.374745
0.391738
0.399048
0.400859
0.398687
0.394074
0.38784
0.380843
0.373299
0.364166
0.356256
0.238066
0.266129
0.317509
0.348904
0.369126
0.379177
0.383309
0.383118
0.3802
0.375415
0.369662
0.363285
0.355113
0.347545
0.202225
0.232858
0.287912
0.322979
0.346395
0.359166
0.365605
0.367387
0.366164
0.362829
0.358307
0.353109
0.346038
0.338674
0.166813
0.199839
0.258411
0.297056
0.323618
0.339074
0.347798
0.351539
0.352001
0.350114
0.346807
0.342767
0.337015
0.329705
0.131979
0.1672
0.229113
0.27122
0.300866
0.318962
0.329939
0.335614
0.337746
0.337303
0.335194
0.332237
0.328045
0.32105
0.0978663
0.135071
0.200124
0.245555
0.278207
0.298887
0.312075
0.319656
0.323432
0.324424
0.32351
0.321551
0.318788
0.313618
0.0646105
0.10357
0.171545
0.220141
0.25571
0.278907
0.294257
0.303703
0.309096
0.311503
0.311792
0.310794
0.309236
0.306036
0.0323516
0.0727984
0.143476
0.195057
0.233442
0.259077
0.276529
0.287797
0.294769
0.298566
0.300057
0.300022
0.299464
0.297783
0.00131084
0.0428262
0.116007
0.170377
0.211467
0.239451
0.258939
0.271977
0.280487
0.285639
0.288318
0.289254
0.289588
0.289065
-0.0285068
0.0139134
0.0892096
0.146175
0.189848
0.22008
0.241529
0.256279
0.266282
0.272749
0.27659
0.278496
0.279678
0.280157
-0.0570056
-0.0137811
0.0631011
0.122527
0.168645
0.201016
0.224343
0.24074
0.252184
0.259924
0.264893
0.267756
0.269761
0.271164
-0.0840747
-0.0399746
0.037584
0.0995139
0.147916
0.182305
0.207421
0.225394
0.238223
0.247188
0.25325
0.25705
0.259848
0.26211
-0.109633
-0.0648322
0.0129922
0.0772296
0.127712
0.163993
0.190803
0.210274
0.224427
0.234568
0.241681
0.246393
0.249951
0.253013
-0.133609
-0.0884247
-0.0104426
0.0557427
0.108085
0.146124
0.174524
0.195411
0.210824
0.222088
0.230209
0.235802
0.240086
0.243899
-0.155935
-0.110632
-0.0326931
0.0350929
0.0890845
0.128739
0.15862
0.180835
0.197438
0.209768
0.218852
0.225295
0.230273
0.23479
-0.176553
-0.131329
-0.0537582
0.0153153
0.0707548
0.111873
0.143121
0.166573
0.184294
0.197631
0.207628
0.214887
0.220527
0.225708
-0.195422
-0.150437
-0.0736065
-0.00354967
0.0531335
0.0955625
0.128059
0.15265
0.171414
0.185696
0.196557
0.204594
0.210864
0.21667
-0.212515
-0.167906
-0.0921913
-0.0214581
0.0362467
0.0798424
0.113459
0.13909
0.158819
0.173981
0.185653
0.19443
0.201298
0.20769
-0.227819
-0.1837
-0.109469
-0.0383699
0.0200897
0.0647681
0.0993452
0.125913
0.146526
0.162504
0.174932
0.184409
0.19184
0.198782
-0.24133
-0.19779
-0.125406
-0.0542485
0.0047472
0.0503061
0.0857377
0.113139
0.134554
0.151279
0.164408
0.174543
0.182501
0.189958
-0.253058
-0.210161
-0.139973
-0.0690677
-0.00975106
0.0364685
0.0726493
0.100788
0.122916
0.14032
0.154094
0.164844
0.17329
0.181231
-0.263025
-0.220813
-0.153152
-0.0828093
-0.0233986
0.0233004
0.0600673
0.0888807
0.111629
0.129641
0.144
0.155324
0.164215
0.17261
-0.271264
-0.229756
-0.164929
-0.095459
-0.0361896
0.0108217
0.0480391
0.0773885
0.100707
0.119252
0.134136
0.145994
0.155283
0.164104
-0.277818
-0.237019
-0.175301
-0.107006
-0.0481163
-0.000962817
0.0365793
0.0663467
0.090132
0.109164
0.12451
0.13686
0.146507
0.155718
-0.282739
-0.242643
-0.184271
-0.117445
-0.0591732
-0.0120522
0.0256874
0.0557697
0.0799285
0.0993703
0.115122
0.127919
0.137912
0.147442
-0.286092
-0.246685
-0.191853
-0.126778
-0.0693588
-0.022446
0.0153613
0.0456585
0.0701071
0.0898853
0.105982
0.119137
0.129551
0.139246
-0.287949
-0.249217
-0.198068
-0.13501
-0.0786765
-0.0321455
0.00560017
0.0360116
0.0606692
0.0807156
0.0971025
0.110575
0.12136
0.131116
-0.288389
-0.250326
-0.202946
-0.142155
-0.0871335
-0.041155
-0.00359837
0.0268271
0.0516136
0.0718631
0.0884893
0.102237
0.113319
0.1232
-0.287503
-0.250112
-0.206527
-0.148231
-0.0947414
-0.0494823
-0.0122392
0.0181023
0.0429388
0.063327
0.0801401
0.0941169
0.105447
0.115502
-0.285385
-0.248691
-0.208856
-0.153264
-0.101515
-0.0571382
-0.0203301
0.00983245
0.034642
0.0551056
0.0720527
0.0862126
0.0977575
0.107976
-0.282139
-0.246191
-0.209987
-0.157286
-0.107475
-0.0641362
-0.0278812
0.00201048
0.0267189
0.0471962
0.0642257
0.0785249
0.09025
0.100594
-0.277874
-0.242743
-0.209987
-0.160335
-0.112641
-0.0704923
-0.0349049
-0.0053727
0.0191633
0.0395951
0.0566574
0.0710529
0.0829241
0.0933524
-0.272703
-0.238484
-0.208929
-0.162456
-0.117041
-0.0762247
-0.0414156
-0.0123279
0.0119674
0.0322972
0.0493447
0.0637945
0.0757793
0.0862562
-0.266744
-0.233551
-0.206902
-0.1637
-0.120704
-0.0813537
-0.0474293
-0.0188676
0.00512215
0.025296
0.0422833
0.0567464
0.0688152
0.0793087
-0.260119
-0.228074
-0.204006
-0.164126
-0.12366
-0.0859017
-0.0529634
-0.0250054
-0.00138297
0.0185836
0.0354678
0.0499047
0.0620296
0.0725112
-0.252951
-0.222178
-0.200351
-0.163795
-0.125944
-0.0898923
-0.0580366
-0.0307561
-0.00755949
0.0121513
0.0288921
0.043265
0.0554193
0.0658633
-0.245361
-0.215974
-0.196059
-0.162773
-0.127593
-0.0933507
-0.0626683
-0.0361356
-0.0134199
0.00598941
0.0225492
0.0368218
0.04898
0.0593633
-0.23747
-0.209563
-0.19126
-0.161131
-0.128647
-0.096303
-0.0668784
-0.0411602
-0.0189776
8.73463e-05
0.0164312
0.0305696
0.042707
0.0530088
-0.229392
-0.203034
-0.186087
-0.158942
-0.129148
-0.0987762
-0.0706872
-0.0458467
-0.0242462
-0.00556615
0.0105295
0.0245018
0.0365948
0.0467966
-0.221235
-0.196462
-0.180671
-0.156283
-0.12914
-0.100798
-0.0741148
-0.0502118
-0.0292402
-0.0109829
0.004835
0.0186115
0.0306379
0.0407231
-0.213096
-0.189914
-0.175136
-0.153231
-0.128672
-0.102395
-0.077181
-0.0542722
-0.0339736
-0.016175
-0.000662141
0.0128913
0.0248298
0.0347838
-0.205061
-0.183448
-0.169591
-0.149871
-0.127791
-0.103596
-0.0799048
-0.058044
-0.0384608
-0.0211549
-0.0059721
0.00733322
0.0191639
0.0289741
-0.1972
-0.177113
-0.164125
-0.146288
-0.12655
-0.10443
-0.0823046
-0.0615423
-0.0427153
-0.0259349
-0.0111054
0.0019291
0.0136333
0.0232886
-0.189573
-0.170955
-0.158804
-0.14257
-0.125003
-0.104924
-0.0843982
-0.0647812
-0.0467502
-0.030527
-0.0160725
-0.00332956
0.00823049
-0.182224
-0.165015
-0.153676
-0.138804
-0.123203
-0.105109
-0.0862021
-0.0677736
-0.0505772
-0.0349428
-0.0208842
-0.175186
-0.159325
-0.148767
-0.135071
-0.121207
-0.105015
-0.0877326
-0.0705306
-0.054207
-0.039193
-0.168481
-0.153914
-0.144093
-0.13144
-0.119075
-0.104674
-0.0890052
-0.0730616
-0.0576484
-0.0432872
-0.162124
-0.1488
-0.139662
-0.127965
-0.116866
-0.104123
-0.0900356
-0.0753746
-0.0609081
-0.156124
-0.143995
-0.135479
-0.124678
-0.114641
-0.103397
-0.0908402
-0.077476
-0.150484
-0.1395
-0.13155
-0.121593
-0.112456
-0.102537
-0.0914366
-0.145202
-0.135311
-0.127879
-0.118714
-0.110357
-0.101586
-0.0918453
-0.140274
-0.131419
-0.124467
-0.116036
-0.10838
-0.100588
-0.135692
-0.127812
-0.121313
-0.113556
-0.106542
-0.131445
-0.124473
-0.118411
-0.111268
-0.104849
-0.12752
-0.121389
-0.11575
-0.109172
-0.123902
-0.118543
-0.113316
-0.107264
-0.120574
-0.115917
-0.111095
-0.117518
-0.113496
-0.109068
-0.114712
-0.11126
-0.107218
-0.112135
-0.109195
-0.109755
-0.10729
-0.107558
-0.105521
-0.105525
-0.103633
-0.101859
-0.100183
-0.0985868
0.0917989
0.085016
0.0783526
0.0718087
0.0653838
0.0590768
0.052886
0.046809
0.0408433
0.0349855
0.0292322
0.094049
0.0874184
0.0808979
0.074487
0.0681851
0.0619914
0.0559043
0.0499221
0.0440425
0.0382631
0.0325808
0.0962305
0.0897836
0.0834394
0.0771972
0.0710565
0.0650165
0.0590761
0.053234
0.0474882
0.0418369
0.0362776
0.0983733
0.0920939
0.0859087
0.0798171
0.0738188
0.0679131
0.0620992
0.056376
0.0507419
0.0451952
0.0397341
0.10046
0.0943412
0.0883074
0.0823586
0.0764945
0.0707146
0.065018
0.0594039
0.053871
0.0484176
0.0430422
0.102485
0.0965257
0.0906434
0.0848382
0.0791098
0.0734579
0.0678818
0.0623807
0.0569534
0.0515987
0.046315
0.104451
0.0986502
0.0929193
0.0872584
0.0816675
0.0761462
0.0706941
0.0653106
0.0599946
0.0547452
0.0495611
0.10636
0.100715
0.0951348
0.0896178
0.0841644
0.0787745
0.0734479
0.0681839
0.0629821
0.0578415
0.0527612
0.108211
0.102721
0.0972894
0.0919151
0.0865988
0.0813403
0.0761395
0.0709963
0.06591
0.0608801
0.0559058
0.110004
0.104667
0.0993825
0.0941499
0.0889699
0.0838426
0.0787682
0.0737463
0.0687768
0.0638592
0.0589929
0.111741
0.106554
0.101414
0.0963217
0.0912772
0.0862809
0.0813328
0.0764329
0.0715811
0.0667772
0.0620208
0.113421
0.108381
0.103384
0.0984304
0.0935202
0.0886541
0.0838322
0.0790545
0.0743211
0.0696319
0.0649868
0.115043
0.110148
0.105292
0.100475
0.0956983
0.0909615
0.0862652
0.0816096
0.0769949
0.0724211
0.0678881
0.116607
0.111855
0.107138
0.102456
0.0978107
0.0932021
0.0886307
0.0840967
0.0796006
0.0751424
0.0707223
0.118115
0.113503
0.108922
0.104373
0.0998571
0.0953753
0.0909276
0.0865146
0.0821366
0.0777939
0.0734868
0.119566
0.115091
0.110643
0.106225
0.101837
0.0974805
0.0931552
0.088862
0.0846013
0.0803736
0.0761793
0.120962
0.11662
0.112303
0.108013
0.103751
0.0995171
0.0953126
0.0911378
0.0869934
0.0828798
0.0787976
0.122302
0.11809
0.113901
0.109737
0.105598
0.101485
0.0973991
0.0933411
0.0893115
0.0853109
0.0813399
0.123588
0.119503
0.115438
0.111396
0.107378
0.103384
0.0994143
0.0954711
0.0915545
0.0876654
0.0838043
0.124819
0.120858
0.116915
0.112992
0.109091
0.105213
0.101358
0.097527
0.0937215
0.089942
0.0861891
0.125998
0.122155
0.11833
0.114524
0.110738
0.106972
0.103229
0.0995083
0.0958116
0.0921395
0.0884929
0.127123
0.123397
0.119686
0.115993
0.112318
0.108662
0.105028
0.101414
0.0978239
0.094257
0.0907144
0.128197
0.124582
0.120982
0.117398
0.113831
0.110283
0.106754
0.103245
0.0997579
0.0962933
0.0928523
0.129219
0.125712
0.122219
0.118741
0.115279
0.111833
0.108407
0.104999
0.101613
0.0982479
0.0949055
0.13019
0.126787
0.123397
0.120021
0.116659
0.113314
0.109987
0.106677
0.103388
0.10012
0.0968731
0.13111
0.127808
0.124517
0.121239
0.117975
0.114726
0.111493
0.108279
0.105083
0.101908
0.098754
0.131983
0.128776
0.125579
0.122395
0.119224
0.116067
0.112927
0.109803
0.106698
0.103612
0.100547
0.132804
0.129688
0.126583
0.123488
0.120407
0.117339
0.114286
0.11125
0.108231
0.105232
0.102252
0.133574
0.130546
0.127528
0.124519
0.121523
0.11854
0.115571
0.112618
0.109683
0.106766
0.103868
0.134296
0.131351
0.128415
0.125488
0.122573
0.11967
0.116782
0.113908
0.111052
0.108213
0.105393
0.134968
0.132102
0.129244
0.126395
0.123556
0.12073
0.117917
0.115119
0.112337
0.109572
0.106826
0.135591
0.132799
0.130014
0.127238
0.124472
0.121718
0.118977
0.11625
0.113538
0.110844
0.108167
0.136165
0.133442
0.130726
0.128019
0.125321
0.122634
0.11996
0.117299
0.114654
0.112025
0.109413
0.136689
0.134031
0.131379
0.128736
0.126101
0.123477
0.120865
0.118267
0.115683
0.113114
0.110563
0.137164
0.134565
0.131972
0.129388
0.126812
0.124246
0.121692
0.11915
0.116623
0.114111
0.111615
0.137586
0.135042
0.132504
0.129973
0.127451
0.124938
0.122437
0.119947
0.117472
0.115011
0.112566
0.137957
0.135462
0.132973
0.130491
0.128017
0.125552
0.123098
0.120656
0.118227
0.115812
0.113412
0.138273
0.135822
0.133377
0.130938
0.128507
0.126084
0.123673
0.121272
0.118884
0.11651
0.11415
0.138534
0.136121
0.133713
0.131312
0.128918
0.126533
0.124158
0.121794
0.119441
0.117102
0.114777
0.13873
0.136349
0.133973
0.131604
0.129241
0.126887
0.124543
0.122209
0.119886
0.117576
0.115279
0.138874
0.136519
0.134169
0.131824
0.129486
0.127156
0.124835
0.122524
0.120223
0.117934
0.115658
0.113396
0.138922
0.136587
0.134258
0.131935
0.129619
0.12731
0.125011
0.12272
0.12044
0.118171
0.115914
0.113669
0.315216
0.307154
0.29941
0.291624
0.283373
0.27496
0.266525
0.25805
0.249542
0.241027
0.232523
0.224043
0.215601
0.207207
0.198871
0.190603
0.182409
0.174297
0.166273
0.158342
0.150511
0.142779
0.135087
0.127511
0.120109
0.112856
0.105722
0.0987013
0.311893
0.303556
0.295347
0.287669
0.279615
0.271392
0.263197
0.254991
0.246761
0.238532
0.23032
0.222135
0.213987
0.205885
0.197837
0.189851
0.181933
0.174088
0.166319
0.158627
0.151011
0.143473
0.136152
0.128844
0.121651
0.114588
0.107637
0.100789
0.307775
0.299513
0.291013
0.283479
0.275719
0.267726
0.259773
0.251837
0.243883
0.235932
0.228003
0.220104
0.212241
0.204423
0.196658
0.18895
0.181307
0.173732
0.16623
0.158802
0.151456
0.14421
0.137107
0.13002
0.123036
0.116179
0.10943
0.10278
0.303291
0.29534
0.286761
0.279363
0.271923
0.264191
0.256477
0.248812
0.241139
0.233467
0.22582
0.218204
0.210624
0.203086
0.195598
0.188163
0.180789
0.173478
0.166234
0.159062
0.151971
0.144969
0.138076
0.131203
0.124427
0.117769
0.111212
0.104747
0.298685
0.291113
0.282585
0.275309
0.268174
0.260723
0.253252
0.24585
0.238455
0.23106
0.223689
0.21635
0.209046
0.201782
0.194563
0.187395
0.180282
0.173227
0.166235
0.159309
0.152457
0.145683
0.139007
0.132349
0.125782
0.119321
0.112951
0.106664
0.294065
0.286863
0.27848
0.271333
0.264483
0.257325
0.2501
0.242954
0.235832
0.22871
0.221608
0.214538
0.207502
0.200503
0.193546
0.186636
0.179776
0.17297
0.166222
0.159534
0.152914
0.146364
0.1399
0.133451
0.127086
0.120818
0.114632
0.108521
0.289471
0.282616
0.274444
0.267446
0.26086
0.253997
0.247026
0.24013
0.233273
0.226419
0.21958
0.212772
0.205996
0.199255
0.192552
0.185892
0.179278
0.172713
0.166201
0.159744
0.153349
0.147018
0.14076
0.134511
0.128342
0.122264
0.116259
0.110322
0.28493
0.278397
0.270482
0.263654
0.257315
0.250741
0.244029
0.237378
0.230779
0.224186
0.217605
0.211051
0.204528
0.198037
0.191581
0.185163
0.178787
0.172456
0.166172
0.159939
0.153762
0.147642
0.141585
0.13553
0.129554
0.123661
0.117834
0.112067
0.280465
0.274233
0.266599
0.25996
0.253856
0.247562
0.24111
0.234701
0.228351
0.222013
0.215683
0.209376
0.203097
0.196848
0.190631
0.184447
0.178302
0.172197
0.166135
0.160118
0.154152
0.148236
0.142376
0.136508
0.13072
0.125011
0.119358
0.113757
0.276091
0.27014
0.262802
0.256366
0.250487
0.244461
0.238267
0.232098
0.225989
0.219898
0.213812
0.207745
0.201704
0.195689
0.189702
0.183746
0.177823
0.171936
0.166088
0.160282
0.154521
0.148806
0.143132
0.137444
0.131841
0.126312
0.12083
0.115393
0.271818
0.266133
0.259096
0.252874
0.247212
0.241443
0.235503
0.22957
0.223695
0.217842
0.211993
0.206159
0.200347
0.194558
0.188794
0.183057
0.177349
0.171673
0.166031
0.160425
0.154863
0.149352
0.143899
0.138367
0.132932
0.12757
0.122252
0.116975
0.267654
0.262221
0.255487
0.249484
0.244034
0.23851
0.232818
0.227116
0.221468
0.215845
0.210226
0.204617
0.199026
0.193456
0.187908
0.182382
0.176882
0.171409
0.165965
0.160551
0.155167
0.149809
0.144476
0.139245
0.134002
0.12879
0.123625
0.118502
0.263605
0.25841
0.251978
0.246197
0.240953
0.235663
0.230212
0.224737
0.219309
0.213908
0.20851
0.203119
0.197742
0.192383
0.187042
0.18172
0.17642
0.171143
0.16589
0.160663
0.155461
0.150289
0.145157
0.140096
0.135017
0.129958
0.124945
0.119975
0.259675
0.254708
0.248571
0.243015
0.23797
0.232905
0.227685
0.222432
0.217217
0.21203
0.206845
0.201664
0.196494
0.191338
0.186197
0.181072
0.175965
0.170877
0.16581
0.160764
0.155743
0.150749
0.145789
0.140885
0.135971
0.131072
0.126212
0.121392
0.255869
0.251118
0.245271
0.239936
0.235086
0.230235
0.225239
0.2202
0.215193
0.21021
0.205231
0.200253
0.195281
0.190321
0.185372
0.180437
0.175516
0.170611
0.165723
0.160854
0.156006
0.151182
0.146387
0.141637
0.136881
0.13214
0.127431
0.122757
0.252187
0.247644
0.242078
0.236963
0.232302
0.227654
0.222873
0.218042
0.213235
0.20845
0.203668
0.198884
0.194104
0.189332
0.184569
0.179816
0.175074
0.170345
0.16563
0.160931
0.15625
0.15159
0.146955
0.142355
0.137752
0.133162
0.1286
0.124069
0.248633
0.244287
0.238993
0.234095
0.229616
0.225163
0.220587
0.215957
0.211342
0.206747
0.202155
0.197558
0.192962
0.18837
0.183785
0.179208
0.174638
0.170079
0.165531
0.160995
0.156475
0.151973
0.147491
0.143038
0.138582
0.134139
0.129721
0.125329
0.245208
0.24105
0.236018
0.231331
0.22703
0.222761
0.218382
0.213945
0.209516
0.205103
0.200691
0.196274
0.191854
0.187437
0.183023
0.178613
0.17421
0.169813
0.165425
0.161048
0.156682
0.152331
0.147998
0.143687
0.139374
0.135073
0.130793
0.126536
0.241912
0.237933
0.233153
0.228671
0.224541
0.220449
0.216256
0.212005
0.207754
0.203516
0.199277
0.195032
0.190782
0.186531
0.182281
0.178033
0.173788
0.169548
0.165314
0.161088
0.156871
0.152666
0.148476
0.144303
0.140128
0.135963
0.131818
0.127693
0.238745
0.234937
0.230398
0.226115
0.22215
0.218225
0.214211
0.210137
0.206057
0.201986
0.197913
0.193832
0.189744
0.185652
0.181559
0.177466
0.173374
0.169284
0.165197
0.161117
0.157043
0.152979
0.148925
0.144886
0.140845
0.136812
0.132797
0.128799
0.235709
0.232062