/*--------------------------------*- C++ -*----------------------------------*\
  =========                 |
  \\      /  F ield         | OpenFOAM: The Open Source CFD Toolbox
   \\    /   O peration     | Website:  https://openfoam.org
    \\  /    A nd           | Version:  7
     \\/     M anipulation  |
\*---------------------------------------------------------------------------*/
FoamFile
{
    version     2.0;
    format      ascii;
    class       surfaceScalarField;
    location    "20";
    object      phi;
}
// * * * * * * * * * * * * * * * * * * * * * * * * * * * * * * * * * * * * * //

dimensions      [0 3 -1 0 0 0 0];

internalField   nonuniform List<scalar> 
16357
(
0.000168597
0.000170014
0.000171307
0.00017247
-9.89176e-07
0.000173459
0.000335449
-7.35685e-07
0.000174195
0.000323776
-3.54141e-07
0.000174549
0.000309256
1.84808e-07
0.000174364
0.00029142
8.34134e-07
0.00017353
2.26096e-05
0.000269645
0.000169227
1.70945e-06
0.000171821
2.80357e-05
0.000243319
9.91849e-05
2.8249e-06
0.000168996
3.43853e-05
0.000211758
0.000115941
1.76289e-05
-0.000428162
4.2007e-06
0.000164795
4.17288e-05
0.00017423
0.000136103
-7.67453e-05
-0.000606865
5.85446e-06
0.000158941
5.01195e-05
0.000129965
0.000158613
-0.000185239
-0.00080837
7.79985e-06
0.000151141
5.95924e-05
7.81725e-05
0.000183454
-0.0003091
0.000408468
-0.00103339
-0.00206703
1.00465e-05
0.000141094
7.01634e-05
1.80556e-05
0.000210531
-0.000449467
0.000459096
-0.00128195
-0.00242417
1.26004e-05
0.000128494
8.18292e-05
-5.11731e-05
0.000239656
-0.000607294
0.000511
-0.00155329
0.00088413
-0.0027973
-0.00414714
1.54639e-05
0.00011303
9.45661e-05
-0.000130275
0.000270535
-0.000783262
0.000562989
-0.00184575
0.000946492
-0.0031808
0.00135827
-0.00455892
-0.00578819
1.86364e-05
9.43936e-05
0.000108328
-0.000219967
0.000302753
-0.000977687
0.000613749
-0.00215674
0.00100167
-0.00356873
0.0013984
-0.00495565
-0.00614303
2.21143e-05
7.22793e-05
0.000123042
-0.000320895
0.000335778
-0.00119042
0.000661947
-0.00248291
0.00104844
-0.00395522
0.00142574
-0.00533296
0.00175143
-0.00646872
-0.00735124
2.58914e-05
4.63879e-05
0.000138602
-0.000433606
0.000368978
-0.0014208
0.00070633
-0.00282027
0.001086
-0.00433488
0.00144076
-0.00568772
0.00173725
-0.00676521
0.00197287
-0.00758685
-0.0082285
2.99585e-05
1.64295e-05
0.000154863
-0.00055851
0.000401646
-0.00166758
0.000745813
-0.00316443
0.001114
-0.00470307
0.0014442
-0.00601792
0.00171222
-0.00703323
0.00192194
-0.00779657
0.00208969
-0.00839626
-0.00891333
3.43039e-05
-1.78745e-05
0.000171631
-0.000695837
0.000433043
-0.00192899
0.000779541
-0.00351093
0.00113245
-0.00505598
0.00143706
-0.00632253
0.00167785
-0.00727402
0.001864
-0.00798271
0.00201341
-0.00854567
0.00214254
-0.00904245
-0.00952355
3.89125e-05
-5.67869e-05
0.000188669
-0.000845593
0.000462444
-0.00220277
0.000806928
-0.00385541
0.00114165
-0.0053907
0.0014204
-0.00660128
0.00163556
-0.00748918
0.0018004
-0.00814755
0.00193352
-0.00867879
0.00205021
-0.00915915
0.0021605
-0.00963384
-0.0101276
4.37644e-05
-0.000100551
0.0002057
-0.00100753
0.000489177
-0.00248625
0.000827647
-0.00419388
0.00114212
-0.00570517
0.00139534
-0.0068545
0.00158664
-0.00768048
0.00173229
-0.0082932
0.00185086
-0.00879737
0.00195625
-0.00926454
0.00205689
-0.00973447
0.00215645
-0.0102271
-0.0107456
4.88334e-05
-0.000149385
0.000222418
-0.00118111
0.00051266
-0.00277649
0.000841613
-0.00452284
0.0011345
-0.00599806
0.00136296
-0.00708296
0.00153223
-0.00784975
0.00166061
-0.00842158
0.00176611
-0.00890286
0.00186107
-0.0093595
0.00195247
-0.00982588
0.00204315
-0.0103178
0.00213526
-0.0108377
-0.0114011
0.00222681
5.40843e-05
-0.000203469
0.000238504
-0.00136553
0.000532434
-0.00307042
0.000848938
-0.00483934
0.00111953
-0.00626866
0.00132429
-0.00728772
0.00147334
-0.0079988
0.00158617
-0.00853441
0.00167978
-0.00899648
0.00176498
-0.0094447
0.00184745
-0.00990834
0.00192933
-0.0103997
0.00201231
-0.0109207
-0.0114833
0.00209452
5.94699e-05
-0.000262939
0.000253643
-0.00155971
0.000548169
-0.00336495
0.000849888
-0.00514106
0.00109799
-0.00651675
0.00128031
-0.00747004
0.00141086
-0.00812935
0.0015096
-0.00863316
0.0015923
-0.00907917
0.00166823
-0.00952064
0.00174197
-0.00998208
0.00181511
-0.0104728
0.00188896
-0.0109945
-0.0115562
0.00196181
6.49298e-05
-0.000327869
0.000267537
-0.00176231
0.000559678
-0.00365709
0.000844838
-0.00542622
0.00107063
-0.00674254
0.00123186
-0.00763128
0.00134551
-0.008243
0.00143145
-0.00871909
0.001504
-0.00915172
0.00157103
-0.00958767
0.00163616
-0.0100472
0.00170059
-0.0105373
0.00176532
-0.0110593
-0.0116196
0.00182878
7.03903e-05
-0.000398259
0.000279912
-0.00197183
0.000566898
-0.00394407
0.000834238
-0.00569356
0.0010382
-0.00694651
0.00117974
-0.00777281
0.00127794
-0.0083412
0.00135213
-0.00879328
0.00141513
-0.00921472
0.00147352
-0.00964606
0.00153014
-0.0101038
0.00158587
-0.010593
0.00164148
-0.0111149
-0.0116737
0.00169553
7.57668e-05
-0.000474026
0.000290533
-0.0021866
0.00056988
-0.00422342
0.000818578
-0.00594226
0.00100142
-0.00712935
0.00112462
-0.007896
0.00120867
-0.00842526
0.00127199
-0.00885661
0.00132591
-0.00926864
0.00137585
-0.009696
0.00142401
-0.010152
0.00147105
-0.01064
0.00151754
-0.0111614
-0.0117183
0.00156217
8.09678e-05
-0.000554994
0.000299211
-0.00240484
0.000568762
-0.00449297
0.000798365
-0.00617186
0.000960932
-0.00729192
0.0010671
-0.00800216
0.00113814
-0.0084963
0.00119132
-0.00890979
0.0012365
-0.00931382
0.00127813
-0.00973763
0.00131787
-0.0101917
0.00135621
-0.0106784
0.00139359
-0.0111987
-0.0117535
0.0014288
8.58997e-05
-0.000640893
0.000305802
-0.00262475
0.000563751
-0.00475092
0.000774107
-0.00638222
0.000917332
-0.00743515
0.00100769
-0.00809252
0.00106671
-0.00855532
0.00111033
-0.00895341
0.00114705
-0.00935054
0.00118045
-0.00977103
0.0012118
-0.0102231
0.00124146
-0.010708
0.00126973
-0.011227
-0.0117793
0.00129552
9.04708e-05
-0.000731364
0.000310216
-0.00284449
0.000555102
-0.00499581
0.000746297
-0.00657341
0.000871161
-0.00756001
0.000946847
-0.00816821
0.000994686
-0.00860316
0.00102922
-0.00898794
0.00105767
-0.009379
0.00108292
-0.00979627
0.00110589
-0.0102461
0.00112687
-0.010729
0.00114605
-0.0112462
-0.0117957
0.00116244
9.45953e-05
-0.000825959
0.000312411
-0.00306231
0.000543098
-0.00522649
0.000715406
-0.00674572
0.000822897
-0.0076675
0.00088494
-0.00823025
0.000922316
-0.00864053
0.000948129
-0.00901375
0.00096847
-0.00939934
0.000985601
-0.0098134
0.00100022
-0.0102607
0.00101254
-0.0107413
0.00102264
-0.0112563
-0.0118027
0.00102965
9.81956e-05
-0.000924155
0.000312394
-0.00327651
0.000528043
-0.00544214
0.000681874
-0.00689955
0.000772967
-0.00775859
0.000822291
-0.00827958
0.000849807
-0.00866805
0.000867195
-0.00903114
0.000879533
-0.00941168
0.000888588
-0.00982246
0.000894872
-0.010267
0.000898533
-0.010745
0.000899597
-0.0112574
-0.0118004
0.000897268
0.000101204
-0.00102536
0.000310213
-0.00348552
0.000510241
-0.00564217
0.00064611
-0.00703542
0.000721742
-0.00783423
0.00075917
-0.00831701
0.000777327
-0.00868621
0.000786519
-0.00904033
0.000790938
-0.0094161
0.000791948
-0.00982347
0.000789914
-0.0102649
0.000784941
-0.01074
0.000776994
-0.0112494
-0.0117888
0.000765383
0.000103564
-0.00112892
0.00030595
-0.0036879
0.000489996
-0.00582622
0.000608489
-0.00715391
0.000669552
-0.00789529
0.00069581
-0.00834326
0.000705025
-0.00869542
0.000706203
-0.00904151
0.000702768
-0.00941266
0.000695761
-0.00981646
0.000685433
-0.0102546
0.000671853
-0.0107264
0.000654941
-0.0112325
-0.0117679
0.000634094
0.000105229
-0.00123415
0.000299713
-0.00388238
0.000467604
-0.00599411
0.000569353
-0.00725566
0.000616679
-0.00794262
0.000632402
-0.00835899
0.000633018
-0.00869604
0.000626325
-0.00903482
0.000615091
-0.00940143
0.000600095
-0.00980147
0.000581497
-0.010236
0.000559338
-0.0107043
0.000533524
-0.0112067
-0.0117379
0.000503478
0.000106168
-0.00134032
0.000291631
-0.00406785
0.000443345
-0.00614582
0.000529006
-0.00734132
0.000563369
-0.00797698
0.000569108
-0.00836472
0.000561409
-0.00868834
0.000546959
-0.00902037
0.000527972
-0.00938244
0.000505017
-0.00977851
0.000478181
-0.0102092
0.000447469
-0.0106736
0.000412819
-0.011172
-0.0116987
0.000373625
0.000106361
-0.00144668
0.000281848
-0.00424333
0.000417485
-0.00628146
0.000487723
-0.00741156
0.000509833
-0.00799909
0.000506068
-0.00836096
0.000490285
-0.00867256
0.000468172
-0.00899826
0.000441474
-0.00935574
0.000410593
-0.00974763
0.000375559
-0.0101741
0.000336334
-0.0106343
0.000292881
-0.0111286
-0.0116504
0.000244608
0.0001058
-0.00155248
0.000270514
-0.00440805
0.000390272
-0.00640122
0.00044575
-0.00746704
0.000456254
-0.00800959
0.000443397
-0.0083481
0.000419724
-0.00864888
0.000390026
-0.00896856
0.000355657
-0.00932137
0.000316888
-0.00970886
0.000273695
-0.0101309
0.000226048
-0.0105867
0.000173777
-0.0110763
-0.011593
0.000116321
0.000104492
-0.00165697
0.000257799
-0.00456136
0.00036194
-0.00650536
0.000403303
-0.0075084
0.00040279
-0.00800908
0.000381195
-0.00832651
0.000349793
-0.00861748
0.000312577
-0.00893134
0.000270582
-0.00927938
0.000223965
-0.00966224
0.000172637
-0.0100796
0.000116677
-0.0105307
5.58722e-05
-0.0110155
-0.011525
-1.21084e-05
0.000102455
-0.00175943
0.000243863
-0.00470276
0.0003327
-0.00659419
0.000360574
-0.00753627
0.000349575
-0.00799808
0.000319549
-0.00829648
0.000280551
-0.00857848
0.000235881
-0.00888667
0.000186306
-0.0092298
0.000131889
-0.00960783
7.24525e-05
-0.0100202
7.64057e-06
-0.0104659
-6.11431e-05
-0.0109467
-0.0114492
-0.000136933
9.97169e-05
-0.00185914
0.000228857
-0.0048319
0.000302748
-0.00666808
0.000317731
-0.00755126
0.000296724
-0.00797708
0.00025853
-0.00825829
0.000212052
-0.00853201
0.000159987
-0.00883461
0.000102878
-0.00917269
4.06754e-05
-0.00954562
-2.67126e-05
-0.00995278
-9.9136e-05
-0.0103935
-0.00017739
-0.0108685
-0.0113652
-0.000261389
9.63163e-05
-0.00195546
0.000212928
-0.00494852
0.000272262
-0.00672742
0.000274921
-0.00755392
0.000244336
-0.00794649
0.000198203
-0.00821215
0.000144344
-0.00847815
8.49386e-05
-0.0087752
2.02521e-05
-0.00910801
-4.95099e-05
-0.00947586
-0.000124745
-0.00987755
-0.000205368
-0.0103129
-0.000292158
-0.0107817
-0.0112726
-0.000384741
9.22972e-05
-0.00204776
0.000196215
-0.00505243
0.000241403
-0.00677261
0.000232276
-0.00754479
0.000192496
-0.00790671
0.000138619
-0.00815828
7.74668e-05
-0.00841699
1.06385e-05
-0.00870837
-6.12134e-05
-0.00903615
-0.000138631
-0.00939844
-0.00022172
-0.00979446
-0.000310507
-0.0102241
-0.00040561
-0.0106866
-0.0111715
-0.000506761
8.77098e-05
-0.00213547
0.000178853
-0.00514358
0.000210314
-0.00680407
0.000189909
-0.00752438
0.000141275
-0.00785808
7.98252e-05
-0.00809683
1.13091e-05
-0.00834848
-6.23939e-05
-0.00863467
-0.000141706
-0.00895684
-0.000226695
-0.00931346
-0.000317552
-0.0097036
-0.000414404
-0.0101272
-0.000517734
-0.0105833
-0.0110618
-0.000627364
8.26076e-05
-0.00221808
0.000160965
-0.00522193
0.000179127
-0.00682223
0.000147914
-0.00749317
9.07346e-05
-0.0078009
2.18107e-05
-0.0080279
-5.35562e-05
-0.00827311
-0.000134549
-0.00855368
-0.000221164
-0.00887023
-0.000313627
-0.00922099
-0.00041217
-0.00960506
-0.000516985
-0.0100224
-0.000628469
-0.0104718
-0.0109438
-0.000746463
7.70466e-05
-0.00229512
0.000142669
-0.00528756
0.000147958
-0.00682752
0.000106372
-0.00745158
4.09078e-05
-0.00773543
-3.51862e-05
-0.00795181
-0.000117586
-0.00819071
-0.000205686
-0.00846558
-0.000299519
-0.00877639
-0.00039937
-0.00912114
-0.000505511
-0.00949892
-0.000618184
-0.00990973
-0.000737747
-0.0103522
-0.0108176
-0.000863988
7.10837e-05
-0.00236621
0.000124075
-0.00534055
0.000116914
-0.00682036
6.53614e-05
-0.00740003
-8.3248e-06
-0.00766175
-9.12642e-05
-0.00786887
-0.000180637
-0.00810134
-0.000275749
-0.00837047
-0.00037672
-0.00867542
-0.000483871
-0.00901399
-0.000597514
-0.00938527
-0.000717941
-0.00978931
-0.000845498
-0.0102246
-0.0106832
-0.000979867
6.47752e-05
-0.00243098
0.000105287
-0.00538106
8.60834e-05
-0.00680116
2.49775e-05
-0.00733893
-5.61821e-05
-0.00758059
-0.000146403
-0.00777865
-0.000242656
-0.00800509
-0.000344698
-0.00826842
-0.00045272
-0.0085674
-0.000567078
-0.00889963
-0.000688121
-0.00926423
-0.000816195
-0.00966123
-0.000951652
-0.0100892
-0.0105408
-0.00109403
5.81759e-05
-0.00248916
8.64044e-05
-0.00540929
5.55476e-05
-0.0067703
-1.47493e-05
-0.00726863
-0.000103421
-0.00749191
-0.00020056
-0.00768151
-0.000303606
-0.00790204
-0.000412491
-0.00815954
-0.000527475
-0.00845242
-0.000648943
-0.00877816
-0.000777277
-0.0091359
-0.000912885
-0.00952563
-0.00105614
-0.00994593
-0.0103906
-0.00120642
5.1339e-05
-0.0025405
6.75249e-05
-0.00542547
2.53813e-05
-0.00672815
-5.37605e-05
-0.00718949
-0.000149785
-0.00739589
-0.000253703
-0.00757759
-0.000363451
-0.00779229
-0.000479091
-0.0080439
-0.000600942
-0.00833057
-0.000729416
-0.00864969
-0.000864928
-0.00900039
-0.00100795
-0.0093826
-0.00115891
-0.00979497
-0.0102325
-0.00131696
4.43204e-05
-0.00258482
4.87489e-05
-0.0054299
-4.34935e-06
-0.00667506
-9.20318e-05
-0.00710181
-0.00019522
-0.0072927
-0.000305804
-0.00746701
-0.000422158
-0.00767594
-0.000544461
-0.0079216
-0.000673079
-0.00820195
-0.000808453
-0.00851432
-0.000951023
-0.00885782
-0.00110134
-0.00923229
-0.00125988
-0.00963643
-0.0100668
-0.00142559
3.7181e-05
-0.002622
3.02134e-05
-0.00542293
-3.35587e-05
-0.00661128
-0.000129528
-0.00700584
-0.000239697
-0.00718253
-0.000356836
-0.00734987
-0.000479699
-0.00755307
-0.000608565
-0.00779273
-0.000743847
-0.00806667
-0.000886009
-0.00837216
-0.00103551
-0.00870831
-0.00119298
-0.00907482
-0.00135899
-0.00947042
-0.00989353
-0.00153225
2.997e-05
-0.00265197
1.22571e-05
-0.00540522
-6.21755e-05
-0.00653685
-0.000166231
-0.00690178
-0.000283197
-0.00706557
-0.000406773
-0.00722629
-0.000536042
-0.00742381
-0.000671369
-0.0076574
-0.000813208
-0.00792483
-0.000962041
-0.00822332
-0.00111835
-0.008552
-0.00128284
-0.00891034
-0.0014562
-0.00929706
-0.00971285
-0.00163688
2.26782e-05
-0.00267465
-5.56961e-06
-0.00537697
-9.02346e-05
-0.00645219
-0.000202116
-0.0067899
-0.0003257
-0.00694198
-0.000455592
-0.0070964
-0.000591159
-0.00728824
-0.000732839
-0.00751572
-0.000881122
-0.00777654
-0.00103651
-0.00806793
-0.0011995
-0.00838901
-0.00137086
-0.00873898
-0.00155143
-0.00911649
-0.00952488
-0.0017394
1.52845e-05
-0.00268993
-2.50749e-05
-0.00533661
-0.000117817
-0.00635944
-0.000237133
-0.00667058
-0.000367182
-0.00681193
-0.000503269
-0.00696031
-0.000645023
-0.00714648
-0.000792943
-0.0073678
-0.000947554
-0.00762193
-0.00110937
-0.00790611
-0.00127891
-0.00821947
-0.00145702
-0.00856087
-0.00164467
-0.00892884
-0.00932988
-0.00183967
7.9198e-06
-0.00269785
-4.33998e-05
-0.00528529
-0.000144792
-0.00625805
-0.000271261
-0.00654412
-0.00040762
-0.00667558
-0.000549782
-0.00681815
-0.000697606
-0.00699866
-0.000851649
-0.00721376
-0.00101247
-0.00746112
-0.00118059
-0.00773799
-0.00135655
-0.00804351
-0.00154126
-0.00837616
-0.00173582
-0.00873428
-0.00912813
-0.00193756
8.89685e-07
-0.00269874
-6.1142e-05
-0.00522326
-0.000171109
-0.00614809
-0.000304485
-0.00641074
-0.000446996
-0.00653306
-0.000595108
-0.00667004
-0.000748882
-0.00684489
-0.000908924
-0.00705372
-0.00107583
-0.00729421
-0.00125013
-0.00756369
-0.00143237
-0.00786127
-0.00162357
-0.00818496
-0.00182482
-0.00853302
-0.0089196
-0.00203336
-6.84343e-06
-0.0026919
-7.84352e-05
-0.00515167
-0.000196723
-0.0060298
-0.000336785
-0.00627068
-0.000485291
-0.00638456
-0.000639227
-0.0065161
-0.000798825
-0.00668529
-0.00096474
-0.0068878
-0.00113759
-0.00712136
-0.00131794
-0.00738334
-0.00150638
-0.00767283
-0.00170396
-0.00798738
-0.00191167
-0.00832531
-0.00870446
-0.00212681
-1.42165e-05
-0.00267768
-9.52881e-05
-0.0050706
-0.00022161
-0.00590348
-0.000368144
-0.00612414
-0.000522492
-0.00623021
-0.000682119
-0.00635648
-0.000847409
-0.00652
-0.00101906
-0.00671615
-0.00119773
-0.00694269
-0.001384
-0.00719707
-0.00157856
-0.00747827
-0.00178252
-0.00778342
-0.00199605
-0.00811179
-0.00848449
-0.00221601
-2.13995e-05
-0.00265628
-0.000111691
-0.00498031
-0.000245752
-0.00576942
-0.000398547
-0.00597135
-0.000558581
-0.00607018
-0.000723763
-0.00619129
-0.00089461
-0.00634915
-0.00107187
-0.00653889
-0.00125621
-0.00675835
-0.00144826
-0.00700502
-0.00164886
-0.00727768
-0.00185908
-0.0075732
-0.00207909
-0.00789178
-0.00826347
-0.00230011
-2.8422e-05
-0.00262786
-0.000127632
-0.0048811
-0.000269134
-0.00562791
-0.000427983
-0.0058125
-0.000593546
-0.00590461
-0.000764142
-0.0060207
-0.000940406
-0.00617289
-0.00112312
-0.00635618
-0.00131299
-0.00656848
-0.0015107
-0.00680731
-0.00171716
-0.00707121
-0.00193286
-0.0073575
-0.00215486
-0.00766977
-0.00801968
-0.00239865
-3.52815e-05
-0.00259258
-0.000143095
-0.00477328
-0.000291745
-0.00547926
-0.000456439
-0.00564781
-0.000627372
-0.00573368
-0.000803237
-0.00584483
-0.000984771
-0.00599135
-0.00117279
-0.00616816
-0.00136804
-0.00637323
-0.00157126
-0.00660409
-0.00178328
-0.00685919
-0.00200413
-0.00713665
-0.00223336
-0.00744054
-0.0077712
-0.00248185
-4.19679e-05
-0.00255061
-0.000158067
-0.00465718
-0.000313572
-0.00532376
-0.000483906
-0.00547747
-0.000660047
-0.00555754
-0.00084103
-0.00566385
-0.00102768
-0.0058047
-0.00122086
-0.00597498
-0.00142134
-0.00617275
-0.0016299
-0.00639553
-0.00184733
-0.00664176
-0.00207375
-0.00691023
-0.00231015
-0.00720414
-0.00751879
-0.00256256
-4.84695e-05
-0.00250214
-0.000172535
-0.00453312
-0.000334608
-0.00516169
-0.000510376
-0.0053017
-0.00069156
-0.00537636
-0.000877505
-0.0054779
-0.00106912
-0.00561308
-0.0012673
-0.00577681
-0.00147284
-0.00596721
-0.00168657
-0.0061818
-0.00190922
-0.00641911
-0.0021411
-0.00667835
-0.00238368
-0.00696155
-0.00726202
-0.00264045
-5.47746e-05
-0.00244736
-0.000186485
-0.00440141
-0.000354844
-0.00499333
-0.00053584
-0.00512071
-0.000721899
-0.0051903
-0.000912647
-0.00528716
-0.00110907
-0.00541667
-0.00131208
-0.0055738
-0.00152253
-0.00575676
-0.00174125
-0.00596308
-0.00196897
-0.0061914
-0.00220619
-0.00644113
-0.00245444
-0.00671331
-0.00700077
-0.00271569
-6.08719e-05
-0.00238649
-0.000199907
-0.00426237
-0.000374272
-0.00481896
-0.000560291
-0.00493469
-0.000751054
-0.00499953
-0.000946439
-0.00509177
-0.00114749
-0.00521561
-0.00135517
-0.00536612
-0.00157036
-0.00554157
-0.0017939
-0.00573954
-0.00202652
-0.00595877
-0.00226889
-0.00619876
-0.00252241
-0.00645979
-0.00673491
-0.00278828
-6.6752e-05
-0.00231974
-0.000212791
-0.00411633
-0.000392888
-0.00463886
-0.000583722
-0.00474385
-0.000779013
-0.00480424
-0.000978867
-0.00489192
-0.00118439
-0.00501009
-0.00139657
-0.00515394
-0.00161631
-0.00532183
-0.00184449
-0.00551136
-0.00208185
-0.00572141
-0.00232915
-0.00595145
-0.00258766
-0.00620128
-0.00646439
-0.00285817
-7.24131e-05
-0.00224733
-0.000225129
-0.00396362
-0.000410686
-0.00445331
-0.000606128
-0.00454841
-0.000805769
-0.0046046
-0.00100992
-0.00468777
-0.00121973
-0.00480027
-0.00143623
-0.00493744
-0.00166036
-0.0050977
-0.00189298
-0.00527874
-0.00213491
-0.00547949
-0.00238692
-0.00569944
-0.00265018
-0.00593802
-0.00618927
-0.00292531
-7.78468e-05
-0.00216948
-0.000236914
-0.00380455
-0.00042766
-0.00426256
-0.000627503
-0.00434857
-0.000831311
-0.00440079
-0.00103958
-0.0044795
-0.00125351
-0.00458634
-0.00147415
-0.0047168
-0.00170247
-0.00486938
-0.00193937
-0.00504184
-0.00218566
-0.0052332
-0.00244217
-0.00544292
-0.00270999
-0.00567021
-0.00590962
-0.00298963
-8.30449e-05
-0.00208644
-0.000248139
-0.00363946
-0.000443807
-0.00406689
-0.000647841
-0.00414454
-0.00085563
-0.004193
-0.00106783
-0.0042673
-0.0012857
-0.00436847
-0.0015103
-0.0044922
-0.00174263
-0.00463705
-0.00198361
-0.00480086
-0.00223407
-0.00498273
-0.00249488
-0.00518211
-0.00276704
-0.00539805
-0.00562559
-0.00305107
-8.80002e-05
-0.00199844
-0.0002588
-0.00346866
-0.000459124
-0.00386657
-0.000667139
-0.00393652
-0.000878719
-0.00398142
-0.00109467
-0.00405136
-0.00131628
-0.00414686
-0.00154465
-0.00426383
-0.00178081
-0.00440089
-0.00202567
-0.004556
-0.00228012
-0.00472829
-0.00254501
-0.00491722
-0.00282132
-0.00512173
-0.00533733
-0.00310958
-9.27066e-05
-0.00190573
-0.000268889
-0.00329248
-0.000473605
-0.00366185
-0.00068539
-0.00372474
-0.00090057
-0.00376624
-0.00112008
-0.00383185
-0.00134525
-0.00392169
-0.0015772
-0.00403188
-0.00181698
-0.00416111
-0.00206554
-0.00430744
-0.00232376
-0.00447007
-0.00259254
-0.00464844
-0.0028728
-0.00484146
-0.00504503
-0.0031651
-9.71587e-05
-0.00180857
-0.000278405
-0.00311123
-0.00048725
-0.00345301
-0.000702592
-0.00350939
-0.000921175
-0.00354766
-0.00114405
-0.00360897
-0.00137258
-0.00369316
-0.00160792
-0.00379654
-0.00185114
-0.0039179
-0.00210319
-0.00405539
-0.00236499
-0.00420827
-0.00263743
-0.004376
-0.00292144
-0.00455745
-0.00474888
-0.00321759
-0.000101352
-0.00170722
-0.000287341
-0.00292524
-0.000500055
-0.00324029
-0.00071874
-0.00329071
-0.000940529
-0.00332587
-0.00116658
-0.00338292
-0.00139828
-0.00346146
-0.0016368
-0.00355801
-0.00188325
-0.00367146
-0.00213859
-0.00380004
-0.00240376
-0.0039431
-0.00267966
-0.0041001
-0.00296722
-0.00426989
-0.00444909
-0.00326701
-0.000105282
-0.00160194
-0.000295696
-0.00273483
-0.000512018
-0.00302397
-0.000733831
-0.0030689
-0.000958624
-0.00310108
-0.00118764
-0.00315391
-0.00142231
-0.00322679
-0.00166383
-0.0033165
-0.0019133
-0.00342199
-0.00217172
-0.00354162
-0.00244005
-0.00367478
-0.0027192
-0.00382096
-0.00301008
-0.003979
-0.00414587
-0.0033133
-0.000108945
-0.00149299
-0.000303466
-0.0025403
-0.000523136
-0.0028043
-0.000747861
-0.00284417
-0.000975455
-0.00287349
-0.00120724
-0.00292212
-0.00144468
-0.00298935
-0.00168897
-0.0030722
-0.00194127
-0.00316969
-0.00220257
-0.00328031
-0.00247384
-0.0034035
-0.00275602
-0.00353878
-0.00305002
-0.003685
-0.00383944
-0.00335644
-0.000112338
-0.00138066
-0.000310648
-0.00234199
-0.000533409
-0.00258154
-0.000760828
-0.00261675
-0.000991017
-0.0026433
-0.00122537
-0.00268776
-0.00146537
-0.00274936
-0.00171224
-0.00282533
-0.00196714
-0.00291479
-0.00223111
-0.00301635
-0.00250511
-0.0031295
-0.0027901
-0.00325379
-0.00308699
-0.00338812
-0.00353003
-0.00339639
-0.000115458
-0.0012652
-0.000317241
-0.00214021
-0.000542834
-0.00235595
-0.000772729
-0.00238686
-0.0010053
-0.00241072
-0.00124202
-0.00245105
-0.00148437
-0.00250701
-0.00173361
-0.00257609
-0.00199091
-0.00265749
-0.00225732
-0.00274994
-0.00253384
-0.00285298
-0.00282141
-0.00296622
-0.00312096
-0.00308857
-0.00321788
-0.00343311
-0.000118302
-0.0011469
-0.000323242
-0.00193527
-0.00055141
-0.00212778
-0.00078356
-0.00215471
-0.00101831
-0.00217597
-0.00125718
-0.00221218
-0.00150168
-0.00226251
-0.00175307
-0.00232469
-0.00201256
-0.00239801
-0.00228119
-0.0024813
-0.00255999
-0.00257418
-0.00284993
-0.00267628
-0.00315191
-0.00278659
-0.00290322
-0.00346657
-0.000120869
-0.00102603
-0.000328649
-0.00172749
-0.000559136
-0.00189729
-0.000793321
-0.00192052
-0.00103004
-0.00193925
-0.00127085
-0.00197137
-0.00151729
-0.00201608
-0.00177063
-0.00207135
-0.00203207
-0.00213656
-0.00230271
-0.00221066
-0.00258357
-0.00229333
-0.00287563
-0.00238422
-0.0031798
-0.00248242
-0.00258628
-0.00349674
-0.000123156
-0.00090287
-0.000333462
-0.00151719
-0.00056601
-0.00166474
-0.000802009
-0.00168452
-0.00104048
-0.00170077
-0.00128303
-0.00172882
-0.00153119
-0.00176792
-0.00178626
-0.00181628
-0.00204945
-0.00187336
-0.00232187
-0.00193824
-0.00260455
-0.00201065
-0.0028985
-0.00209027
-0.00320462
-0.0021763
-0.00226732
-0.00352359
-0.000125162
-0.000777707
-0.000337678
-0.00130467
-0.000572031
-0.00143039
-0.000809621
-0.00144693
-0.00104964
-0.00146075
-0.00129371
-0.00148475
-0.00154338
-0.00151824
-0.00179997
-0.0015597
-0.00206469
-0.00160863
-0.00233866
-0.00166427
-0.00262293
-0.00172637
-0.00291852
-0.00179468
-0.00322635
-0.00186848
-0.00194659
-0.00354708
-0.000126885
-0.000650822
-0.000341296
-0.00109026
-0.000577199
-0.00119449
-0.000816156
-0.00120798
-0.0010575
-0.00121941
-0.00130288
-0.00123937
-0.00155386
-0.00126726
-0.00181175
-0.0013018
-0.00207779
-0.00134259
-0.00235309
-0.00138898
-0.00263871
-0.00144075
-0.00293569
-0.0014977
-0.00324496
-0.00155922
-0.00162434
-0.0035672
-0.000128324
-0.000522498
-0.000344316
-0.000874267
-0.000581511
-0.000957292
-0.000821611
-0.000967877
-0.00106406
-0.000976958
-0.00131054
-0.000992895
-0.00156262
-0.00101519
-0.00182161
-0.00104282
-0.00208875
-0.00107545
-0.00236515
-0.00111257
-0.00265189
-0.00115401
-0.00295002
-0.00119958
-0.00326045
-0.00124878
-0.00130087
-0.00358392
-0.000129478
-0.00039302
-0.000346736
-0.000657009
-0.000584967
-0.000719061
-0.000825986
-0.000726859
-0.00106933
-0.000733612
-0.0013167
-0.00074553
-0.00156966
-0.00076223
-0.00182953
-0.000782942
-0.00209756
-0.000807423
-0.00237486
-0.000835272
-0.0026625
-0.000866365
-0.00296152
-0.000900556
-0.00327286
-0.00093745
-0.000976472
-0.00359726
-0.000130346
-0.000262674
-0.000348555
-0.000438799
-0.000587566
-0.000480051
-0.000829277
-0.000485147
-0.0010733
-0.000489591
-0.00132133
-0.000497495
-0.00157496
-0.0005086
-0.00183551
-0.000522392
-0.00210423
-0.000538709
-0.00238222
-0.000557284
-0.00267055
-0.000578032
-0.00297025
-0.000600852
-0.00328224
-0.000625468
-0.000651462
-0.00360725
-0.000130926
-0.000131748
-0.000349773
-0.000219953
-0.000589306
-0.000240517
-0.000831484
-0.00024297
-0.00107596
-0.000245113
-0.00132445
-0.000249004
-0.00157854
-0.000254511
-0.00183955
-0.000261377
-0.00210874
-0.000269519
-0.00238722
-0.000278805
-0.00267606
-0.000289196
-0.00297627
-0.000300642
-0.00328872
-0.000313016
-0.000326102
-0.00361408
-0.00013122
-5.28202e-07
-0.000350389
-7.83761e-07
-0.000590188
-7.18222e-07
-0.000832604
-5.54299e-07
-0.00107732
-4.01277e-07
-0.00132604
-2.77036e-07
-0.00158037
-1.81376e-07
-0.00184164
-1.11804e-07
-0.00211109
-6.68213e-08
-0.00238985
-4.49186e-08
-0.002679
-4.71419e-08
-0.00297957
-7.58602e-08
-0.00329245
-1.33943e-07
-2.5924e-07
-0.00361829
-0.000131225
0.000130697
-0.000350402
0.000218393
-0.000590209
0.000239089
-0.000832635
0.000241872
-0.00107736
0.000244324
-0.0013261
0.000248467
-0.00158046
0.00025417
-0.00184175
0.000261181
-0.00211124
0.000269423
-0.00239005
0.000278769
-0.00267928
0.000289184
-0.00297999
0.000300628
-0.0032931
0.000312982
0.00032609
-0.00361945
-0.000130943
0.00026164
-0.000349812
0.000437262
-0.000589371
0.000478648
-0.000831578
0.000484079
-0.00107609
0.00048884
-0.00132463
0.000497005
-0.00157878
0.000508319
-0.00183988
0.000522275
-0.00210917
0.000538716
-0.00238778
0.000557385
-0.00267681
0.000578212
-0.0029773
0.000601113
-0.00329016
0.000625841
0.000652001
-0.00361607
-0.000130373
0.000392014
-0.00034862
0.000655508
-0.000587671
0.000717699
-0.000829431
0.000725839
-0.00107351
0.000732922
-0.00132162
0.000745117
-0.00157535
0.000762043
-0.00183601
0.00078294
-0.00210487
0.000807572
-0.00238303
0.000835551
-0.00267159
0.000866764
-0.00297155
0.00090108
-0.00328383
0.000938116
0.000977275
-0.0036091
-0.000129516
0.00052153
-0.000346824
0.000872816
-0.00058511
0.000955985
-0.000826194
0.000966924
-0.00106962
0.000976348
-0.00131708
0.000992578
-0.00157015
0.00101512
-0.00183016
0.00104295
-0.00209834
0.00107575
-0.00237581
0.00111302
-0.00266364
0.00115459
-0.00296283
0.00120028
-0.0032743
0.00124958
0.00130172
-0.00359874
-0.000128372
0.000649901
-0.000344425
0.00108887
-0.000581688
0.00119325
-0.000821867
0.0012071
-0.00106441
0.0012189
-0.001311
0.00123917
-0.0015632
0.00126731
-0.00182232
0.00130207
-0.0020896
0.00134303
-0.00236614
0.00138956
-0.002653
0.00144145
-0.0029512
0.00149847
-0.00326163
0.00156002
0.0016251
-0.00358502
-0.000126941
0.000776842
-0.000341425
0.00130335
-0.000577406
0.00142923
-0.000816452
0.00144615
-0.0010579
0.00146034
-0.00130339
0.00148466
-0.0015545
0.00151842
-0.00181251
0.00156008
-0.00207866
0.00160919
-0.00235404
0.00166494
-0.00263971
0.00172711
-0.00293668
0.00179544
-0.00324587
0.00186921
0.00194722
-0.00356798
-0.000125225
0.000902067
-0.000337823
0.00151595
-0.000572263
0.00166367
-0.000809949
0.00168384
-0.00105007
0.00170047
-0.00129426
0.00172884
-0.00154404
0.0017682
-0.00180073
0.00181677
-0.00206553
0.00187399
-0.00233954
0.00193895
-0.00262379
0.00201137
-0.00291932
0.00209096
-0.00322703
0.00217692
0.00226782
-0.00354763
-0.000123225
0.00102529
-0.00033362
0.00172635
-0.000566262
0.00189631
-0.000802361
0.00191993
-0.00104094
0.00193905
-0.0012836
0.0019715
-0.00153185
0.00201646
-0.00178699
0.00207191
-0.00205023
0.00213722
-0.00232264
0.00221136
-0.00260527
0.002294
-0.00289912
0.00238482
-0.00320513
0.00248292
0.00258667
-0.00352397
-0.000120942
0.00114623
-0.000328818
0.00193422
-0.000559402
0.00212689
-0.000793689
0.00215422
-0.00103051
0.00217587
-0.00127142
0.00221241
-0.00151793
0.00226297
-0.00177132
0.0023253
-0.00203277
0.00239867
-0.00230337
0.00248196
-0.00258415
0.00257478
-0.00287611
0.00267678
-0.00318017
0.00278699
0.00290351
-0.00349701
-0.000118378
0.00126461
-0.000323418
0.00213926
-0.000551686
0.00235516
-0.000783937
0.00238647
-0.00101879
0.00241073
-0.00125774
0.00245136
-0.00150229
0.00250752
-0.00175371
0.00257671
-0.00201317
0.00265813
-0.00228174
0.00275053
-0.00256045
0.00285349
-0.00285029
0.00296661
-0.00315218
0.00308887
0.00321811
-0.00346677
-0.000115536
0.00138015
-0.000317421
0.00234115
-0.000543115
0.00258086
-0.000773107
0.00261646
-0.00100577
0.00264339
-0.00124256
0.00268814
-0.00148494
0.00274991
-0.00173418
0.00282595
-0.00199144
0.00291539
-0.00225778
0.00301687
-0.0025342
0.00312991
-0.00282169
0.0032541
-0.00312116
0.00338835
0.00353022
-0.00343326
-0.000112416
0.00149257
-0.000310831
0.00253956
-0.000533691
0.00280372
-0.000761203
0.00284397
-0.000991471
0.00287366
-0.00122588
0.00292255
-0.00146589
0.00298992
-0.00171275
0.0030728
-0.00196759
0.00317024
-0.00223148
0.00328076
-0.0025054
0.00340383
-0.00279031
0.00353901
-0.00308714
0.00368518
0.00383959
-0.00339651
-0.000109023
0.00160159
-0.000303648
0.00273419
-0.000523416
0.00302349
-0.000748227
0.00306879
-0.00097589
0.00310132
-0.00120772
0.00315438
-0.00144516
0.00322736
-0.00168942
0.00331706
-0.00194165
0.00342247
-0.00220287
0.00354198
-0.00247407
0.00367503
-0.00275618
0.00382112
-0.00305014