/*--------------------------------*- C++ -*----------------------------------*\
  =========                 |
  \\      /  F ield         | OpenFOAM: The Open Source CFD Toolbox
   \\    /   O peration     | Website:  https://openfoam.org
    \\  /    A nd           | Version:  7
     \\/     M anipulation  |
\*---------------------------------------------------------------------------*/
FoamFile
{
    version     2.0;
    format      ascii;
    class       volVectorField;
    location    "20";
    object      U;
}
// * * * * * * * * * * * * * * * * * * * * * * * * * * * * * * * * * * * * * //

dimensions      [0 1 -1 0 0 0 0];

internalField   nonuniform List<vector> 
8330
(
(-0.0199645 0.0275505 -8.855e-20)
(-0.0209865 0.0271641 1.25875e-19)
(-0.0220012 0.02671 9.0521e-20)
(-0.0230008 0.0261938 -1.22405e-19)
(-0.0239734 0.0256173 -1.0861e-19)
(-0.0428021 0.0494913 -1.18933e-19)
(-0.0249013 0.0249779 1.09468e-19)
(-0.0424494 0.0471534 7.22074e-20)
(-0.0257598 0.0242692 -1.48565e-19)
(-0.0415479 0.0446101 1.11146e-19)
(-0.0265176 0.0234832 -1.44661e-20)
(-0.0399907 0.0418751 -1.02158e-19)
(-0.0271431 0.0226159 5.27892e-20)
(-0.037655 0.0389573 -6.87702e-20)
(-0.0104223 0.0428523 1.89108e-20)
(-0.0276011 0.0216594 -5.39626e-20)
(-0.0344089 0.0358645 1.03938e-19)
(0.00071179 0.0387879 1.00195e-19)
(-0.0278455 0.0206011 1.51891e-19)
(-0.0301161 0.0326116 -8.20657e-20)
(0.0141083 0.0347653 1.03335e-19)
(0.104827 0.0338432 -1.69431e-20)
(-0.0278247 0.0194299 9.02768e-20)
(-0.0246325 0.0292178 2.91742e-20)
(0.0300107 0.0308678 -2.43374e-19)
(0.136091 0.0311438 -1.02598e-20)
(-0.0274826 0.0181377 3.95154e-20)
(-0.0178072 0.025708 5.33992e-20)
(0.0486562 0.0271906 1.68792e-19)
(0.171651 0.029296 1.54564e-19)
(-0.0267591 0.0167198 -1.42867e-19)
(-0.00948571 0.0221153 1.84277e-19)
(0.0702694 0.023844 -1.27102e-19)
(0.211621 0.0285198 -1.11958e-19)
(0.408125 0.0458604 -2.82835e-20)
(-0.0255904 0.0151759 2.36744e-19)
(0.000488015 0.0184833 -1.80507e-19)
(0.0950535 0.0209567 1.25651e-19)
(0.255989 0.0290451 -3.04055e-20)
(0.471252 0.0522319 5.68132e-20)
(-0.0239103 0.013511 -2.04699e-19)
(0.0122688 0.0148678 1.5009e-19)
(0.123179 0.0186795 2.18397e-20)
(0.304579 0.0310952 7.81899e-20)
(0.53685 0.0605208 -5.08352e-21)
(0.776223 0.0991298 2.38446e-20)
(-0.0216505 0.011736 5.34939e-20)
(0.0260074 0.011339 -2.52089e-19)
(0.15477 0.0171872 -7.14898e-20)
(0.357031 0.0348596 5.50599e-20)
(0.603694 0.070586 -5.2342e-20)
(0.843082 0.112564 -2.9739e-21)
(1.03468 0.148893 5.17085e-20)
(-0.0187421 0.00986788 -1.01105e-19)
(0.0418468 0.00798288 2.27497e-19)
(0.189884 0.016677 -8.45924e-20)
(0.412787 0.0404652 -1.13621e-19)
(0.670511 0.082203 1.07287e-20)
(0.905763 0.126528 -9.88511e-22)
(1.08315 0.161936 5.29668e-20)
(-0.0151163 0.00793033 7.48825e-20)
(0.0599183 0.00490302 5.22404e-20)
(0.228491 0.0173614 1.15953e-19)
(0.471114 0.0479544 1.2666e-19)
(0.73609 0.0951032 -1.5517e-20)
(0.963554 0.140755 2.28846e-20)
(1.12528 0.174552 -6.38731e-20)
(1.22335 0.193914 6.3459e-20)
(-0.0107055 0.00595338 -6.53251e-21)
(0.0803355 0.00222241 -9.37795e-20)
(0.270454 0.0194534 -1.13335e-19)
(0.531146 0.0572802 -3.46779e-20)
(0.799368 0.109012 5.36169e-20)
(1.01604 0.155036 -1.10555e-20)
(1.16136 0.186672 -3.01344e-20)
(1.2441 0.20313 2.55022e-20)
(1.28329 0.207719 8.06843e-20)
(-0.00544443 0.00397352 -4.76236e-20)
(0.103187 8.44139e-05 -1.28053e-19)
(0.315516 0.0231458 1.38602e-19)
(0.591947 0.0683186 -3.39792e-20)
(0.859481 0.123674 3.16162e-21)
(1.06305 0.169213 2.13391e-21)
(1.19181 0.198267 8.23455e-21)
(1.26035 0.21177 -7.51899e-20)
(1.28971 0.213943 1.9321e-20)
(1.29759 0.209231 3.52391e-20)
(0.000729423 0.00203379 9.88191e-21)
(0.128527 -0.00134741 5.83394e-20)
(0.363299 0.028589 9.8054e-20)
(0.652578 0.0808944 -1.77951e-20)
(0.915787 0.138869 7.27709e-20)
(1.10461 0.183178 2.98984e-20)
(1.21711 0.209339 6.83787e-20)
(1.27273 0.219904 5.67038e-20)
(1.29367 0.219833 -5.83955e-20)
(1.29684 0.213692 -3.09818e-20)
(1.29229 0.204567 -2.68077e-20)
(0.00787457 0.000184071 1.57116e-20)
(0.156366 -0.00189199 2.55446e-20)
(0.413309 0.0358737 -2.47714e-19)
(0.712157 0.0948083 8.27863e-20)
(0.967849 0.154414 -6.62373e-20)
(1.1409 0.196858 -3.14096e-20)
(1.2378 0.219912 -3.80043e-20)
(1.28182 0.227608 -1.91398e-20)
(1.29564 0.225468 -3.56356e-20)
(1.29502 0.218046 5.10379e-20)
(1.2887 0.208116 6.06065e-21)
(1.28097 0.19694 3.45416e-21)
(0.0160447 -0.00151835 2.2047e-20)
(0.186659 -0.0013567 -4.4919e-20)
(0.464968 0.0450239 8.54253e-20)
(0.769906 0.10986 -7.50086e-20)
(1.01542 0.170165 -9.99618e-20)
(1.1722 0.210211 -5.05338e-20)
(1.25439 0.230025 -6.25185e-20)
(1.28815 0.234957 2.45787e-20)
(1.296 0.230917 1.37696e-20)
(1.29236 0.222342 -2.29504e-20)
(1.28469 0.21168 6.41914e-22)
(1.27638 0.200116 -2.28227e-21)
(1.26813 0.188867 -3.68058e-21)
(0.0252873 -0.0030081 -1.03881e-19)
(0.219297 0.000452978 7.22724e-20)
(0.517639 0.0560014 -5.56675e-20)
(0.825177 0.125861 9.34613e-21)
(1.0584 0.186006 1.36245e-19)
(1.19884 0.223218 3.559e-20)
(1.26738 0.239726 1.04199e-19)
(1.29216 0.242021 -3.63768e-20)
(1.29506 0.236239 3.92011e-21)
(1.28904 0.226612 2.03576e-20)
(1.28035 0.215272 -5.73981e-21)
(1.2716 0.203321 -4.13097e-22)
(1.26318 0.191573 1.74534e-21)
(1.25619 0.178099 -2.54507e-21)
(0.0356415 -0.00421129 9.48371e-20)
(0.254104 0.00372091 1.37109e-20)
(0.570664 0.0687185 3.72436e-20)
(0.877459 0.142646 -3.58264e-20)
(1.09681 0.201851 -2.87592e-20)
(1.22119 0.235878 -4.35244e-20)
(1.27722 0.249068 2.63888e-20)
(1.29424 0.248863 3.03344e-20)
(1.29307 0.24148 -1.08045e-20)
(1.28519 0.230883 -9.03234e-21)
(1.27573 0.218901 3.43125e-21)
(1.26665 0.206555 -2.06908e-21)
(1.2581 0.194307 1.63012e-20)
(1.25096 0.180774 1.30785e-20)
(0.0471355 -0.00504543 4.80135e-20)
(0.290839 0.00860704 -8.51274e-20)
(0.623396 0.0830543 1.04498e-19)
(0.926375 0.160068 2.84597e-20)
(1.13076 0.217634 -6.99113e-21)
(1.23963 0.248203 -3.78859e-20)
(1.28434 0.258102 -6.66454e-20)
(1.29471 0.255538 -3.65724e-20)
(1.29023 0.246677 2.49943e-20)
(1.2809 0.235172 -5.91044e-21)
(1.27085 0.22257 -1.48599e-21)
(1.26152 0.209814 6.36e-21)
(1.25289 0.197064 -9.9844e-21)
(1.24562 0.183458 7.14921e-21)
(0.0597831 -0.00542021 -9.06297e-20)
(0.329198 0.0152358 -1.18925e-19)
(0.675225 0.0988694 1.2473e-20)
(0.97167 0.178002 1.86625e-20)
(1.16043 0.233305 3.63751e-20)
(1.25453 0.260211 -1.27186e-20)
(1.28911 0.266879 -9.63373e-21)
(1.29383 0.262093 3.33866e-20)
(1.28668 0.251857 -7.3587e-22)
(1.27622 0.239486 -8.3204e-22)
(1.26575 0.226276 1.5281e-23)
(1.25623 0.213092 -2.38986e-21)
(1.24755 0.199838 -1.91958e-20)
(1.24018 0.186143 -1.44367e-20)
(0.0735799 -0.00523925 -1.33804e-21)
(0.368829 0.0236888 1.33813e-19)
(0.7256 0.116017 5.554e-20)
(1.01319 0.196341 -5.78299e-20)
(1.18603 0.248829 3.41198e-20)
(1.26625 0.271925 2.46892e-20)
(1.29184 0.275445 1.64486e-20)
(1.29181 0.268565 -2.94525e-20)
(1.28252 0.257039 -9.88558e-21)
(1.27121 0.243832 3.10038e-21)
(1.26042 0.230017 -3.19841e-22)
(1.25077 0.216384 6.72775e-21)
(1.24207 0.202623 1.09828e-20)
(1.23462 0.188824 4.54027e-21)
(0.0885001 -0.00440287 2.41694e-20)
(0.409343 0.034002 -1.01953e-20)
(0.77404 0.134349 -1.08188e-19)
(1.05087 0.214991 -3.6821e-20)
(1.20781 0.264181 -7.427e-20)
(1.27513 0.283373 1.50045e-20)
(1.29281 0.28384 5.47422e-21)
(1.28883 0.274983 8.84578e-21)
(1.27785 0.262233 -2.4038e-21)
(1.26589 0.248206 8.03055e-22)
(1.25488 0.233783 2.38053e-21)
(1.24514 0.219679 -2.55071e-21)
(1.23645 0.205411 7.99288e-23)
(1.22893 0.19149 1.37851e-20)
(0.104494 -0.00281183 4.44742e-20)
(0.450327 0.0461684 -7.41185e-20)
(0.820138 0.153722 8.16321e-21)
(1.08472 0.23387 5.09655e-20)
(1.22601 0.279342 5.95838e-20)
(1.28146 0.294578 -3.46911e-20)
(1.29226 0.292096 1.59601e-20)
(1.28501 0.281368 6.91688e-22)
(1.27271 0.267443 -1.08576e-21)
(1.26028 0.252605 9.19853e-22)
(1.24912 0.237567 -6.12897e-21)
(1.23933 0.22297 -1.03192e-20)
(1.23068 0.208195 4.69281e-21)
(1.22313 0.194135 -1.46582e-20)
(0.121487 -0.000371661 3.89294e-20)
(0.491363 0.0601433 2.67652e-20)
(0.863568 0.173997 5.59023e-20)
(1.11477 0.252902 -2.00476e-20)
(1.24089 0.294299 -2.42308e-20)
(1.28552 0.305564 2.1072e-20)
(1.29038 0.300242 -1.71113e-20)
(1.28047 0.287732 -1.16004e-20)
(1.26716 0.27267 2.37841e-21)
(1.25439 0.257021 3.55272e-21)
(1.24314 0.241357 9.76244e-21)
(1.23335 0.226246 1.33502e-20)
(1.22476 0.210965 -1.33536e-20)
(1.21719 0.196749 3.70089e-21)
(0.13938 0.00300284 -4.98609e-20)
(0.532035 0.0758506 2.17196e-20)
(0.904075 0.195042 -3.9797e-20)
(1.14112 0.272018 -7.91836e-21)
(1.25269 0.30904 2.8258e-20)
(1.28755 0.31635 1.33338e-21)
(1.28734 0.308295 -1.09132e-21)
(1.27527 0.29408 3.55569e-21)
(1.2612 0.277906 -2.01814e-22)
(1.24821 0.261442 -2.66511e-21)
(1.23694 0.245141 -6.17843e-21)
(1.22719 0.229497 -1.10604e-20)
(1.21869 0.213712 2.65842e-21)
(1.21113 0.199323 4.61592e-21)
(0.158051 0.00738353 2.83721e-21)
(0.571946 0.09319 1.42835e-20)
(0.941472 0.21673 -2.38543e-20)
(1.16389 0.291155 -5.07886e-21)
(1.26165 0.323559 -4.94367e-21)
(1.28775 0.326952 -2.57852e-21)
(1.28325 0.316267 -2.51097e-21)
(1.26949 0.300412 -2.8746e-21)
(1.25488 0.283142 -3.84565e-22)
(1.24176 0.265857 -2.58613e-21)
(1.23052 0.248906 8.02684e-22)
(1.22083 0.232712 5.61106e-22)
(1.21246 0.216426 1.29547e-20)
(1.20492 0.201845 -7.38215e-21)
(0.177358 0.0128256 2.44977e-21)
(0.61072 0.112042 -5.75268e-21)
(0.975631 0.238939 1.34475e-20)
(1.1832 0.310249 8.17287e-21)
(1.268 0.337844 -2.52305e-21)
(1.28632 0.337379 -4.02403e-22)
(1.27824 0.324164 1.63821e-21)
(1.26316 0.306722 1.35381e-22)
(1.24818 0.288365 3.94326e-23)
(1.23504 0.270249 1.98466e-21)
(1.22387 0.252636 9.13166e-23)
(1.21429 0.235878 2.79761e-22)
(1.20607 0.219095 -5.12355e-21)
(1.19858 0.204305 -3.27101e-21)
(0.19714 0.0193655 2.10738e-21)
(0.648012 0.132274 -4.62822e-21)
(1.00647 0.261555 1.24704e-20)
(1.19921 0.329243 7.92511e-21)
(1.27193 0.351885 -2.02938e-21)
(1.28342 0.347638 -5.37937e-22)
(1.27238 0.331985 9.82788e-22)
(1.25632 0.312999 1.10617e-22)
(1.24112 0.293559 3.25761e-22)
(1.22802 0.274603 2.79795e-21)
(1.21698 0.256317 -3.48134e-23)
(1.20756 0.238983 -7.49537e-23)
(1.19952 0.221709 -5.80984e-21)
(1.19211 0.206693 -3.31782e-21)
(0.217226 0.0270199 -5.95093e-22)
(0.683514 0.153741 1.44975e-20)
(1.03397 0.284465 -2.24979e-20)
(1.21207 0.348077 -6.54624e-21)
(1.27363 0.365671 -1.0453e-21)
(1.27916 0.357726 -2.91479e-21)
(1.26574 0.339722 -1.50821e-21)
(1.24898 0.319227 9.09453e-22)
(1.23371 0.298706 -2.55924e-21)
(1.22073 0.278901 -6.21706e-21)
(1.20986 0.259934 3.35842e-21)
(1.20063 0.242015 6.64956e-22)
(1.19281 0.224253 1.31147e-20)
(1.18551 0.208998 -7.61297e-21)
(0.237433 0.0357863 -5.41945e-20)
(0.716955 0.17629 2.56303e-20)
(1.05811 0.307559 -4.52294e-20)
(1.22192 0.366697 -4.93625e-21)
(1.27328 0.379187 2.71216e-20)
(1.27368 0.367639 -2.53355e-21)
(1.25838 0.347362 -1.17465e-23)
(1.24116 0.32539 -1.07919e-21)
(1.22594 0.303787 5.14412e-21)
(1.21314 0.283125 -1.14097e-20)
(1.20249 0.263469 -1.51167e-20)
(1.1935 0.244958 -1.84447e-20)
(1.18593 0.226715 9.06284e-21)
(1.17878 0.211208 1.09731e-20)
(0.257576 0.0456434 3.09352e-20)
(0.748102 0.199764 2.8839e-20)
(1.07893 0.330733 5.57316e-20)
(1.22893 0.385047 -8.90898e-21)
(1.27103 0.392413 -2.63089e-20)
(1.26707 0.377365 1.40303e-20)
(1.25033 0.354889 -2.50055e-21)
(1.23288 0.331463 7.71699e-21)
(1.21781 0.308779 -1.32068e-20)
(1.20527 0.287255 1.21789e-20)
(1.19489 0.266905 2.83426e-20)
(1.18617 0.2478 3.12975e-20)
(1.17889 0.229079 -2.58082e-20)
(1.17192 0.213313 2.04089e-21)
(0.277465 0.0565533 3.92199e-20)
(0.776762 0.223999 -7.39092e-20)
(1.09647 0.353881 -8.7533e-22)
(1.23325 0.403072 5.00112e-20)
(1.26702 0.40533 3.57347e-20)
(1.25941 0.386888 -1.08905e-20)
(1.24163 0.362282 1.65495e-21)
(1.22414 0.337425 -1.00947e-21)
(1.20933 0.313659 8.54937e-21)
(1.1971 0.291271 1.39069e-20)
(1.18705 0.270226 -1.95387e-20)
(1.17865 0.250526 -3.02311e-20)
(1.17169 0.23133 1.5384e-20)
(1.16492 0.215301 -2.95433e-20)
(0.296912 0.0684635 3.31158e-20)
(0.802781 0.248833 -1.33266e-20)
(1.11082 0.3769 -1.02881e-19)
(1.23502 0.420719 -3.15862e-20)
(1.26137 0.417913 -5.52406e-20)
(1.25076 0.396187 8.421e-21)
(1.2323 0.369516 -1.04882e-22)
(1.21495 0.343249 -5.06645e-21)
(1.20048 0.318403 -1.35316e-21)
(1.18864 0.295152 -2.11267e-20)
(1.17896 0.273413 1.18302e-20)
(1.17093 0.25312 -7.60946e-22)
(1.16433 0.233462 -2.17895e-21)
(1.15774 0.21716 2.37669e-20)
(0.315737 0.081308 -1.96159e-21)
(0.82604 0.274099 1.72695e-19)
(1.12203 0.399689 4.255e-20)
(1.23439 0.437936 -3.39518e-20)
(1.2542 0.430134 1.21104e-20)
(1.2412 0.405237 6.11312e-21)
(1.22238 0.376562 -3.34175e-21)
(1.20531 0.348906 2.98295e-20)
(1.19129 0.322988 3.52164e-20)
(1.17989 0.298877 -5.11031e-20)
(1.17063 0.276448 4.96626e-21)
(1.163 0.255565 2.77255e-20)
(1.15683 0.235477 4.21854e-20)
(1.15037 0.218885 1.72358e-20)
(0.333763 0.0950093 -9.12707e-20)
(0.846456 0.299636 -1.63828e-19)
(1.13022 0.422147 6.28175e-21)
(1.23148 0.454669 4.16837e-20)
(1.24561 0.441963 8.41661e-21)
(1.23077 0.414011 -5.66351e-21)
(1.21187 0.383391 3.44102e-21)
(1.19524 0.354369 -3.88219e-20)
(1.18173 0.327387 7.9217e-21)
(1.17085 0.302425 1.16498e-20)
(1.16206 0.279316 4.75326e-20)
(1.15488 0.257836 -3.53256e-20)
(1.1492 0.237371 -7.85114e-20)
(1.14289 0.220472 -8.18243e-20)
(0.350827 0.10948 3.98144e-20)
(0.863977 0.325283 -8.58825e-20)
(1.13547 0.444175 8.90638e-20)
(1.22644 0.470865 1.76743e-20)
(1.23568 0.453366 7.72674e-22)
(1.21951 0.422476 3.87003e-22)
(1.20079 0.389971 2.62366e-20)
(1.18472 0.359607 5.37236e-20)
(1.17183 0.331574 -7.05224e-20)
(1.16152 0.305776 5.3778e-20)
(1.15325 0.281999 -3.14889e-20)
(1.14659 0.259925 3.82876e-20)
(1.14137 0.2391 -5.75471e-20)
(1.13536 0.221912 3.47426e-20)
(0.366777 0.124622 1.21451e-19)
(0.878577 0.350882 4.10105e-20)
(1.13789 0.465677 -9.53727e-21)
(1.21938 0.48647 -7.51643e-21)
(1.22451 0.464307 -1.15915e-20)
(1.20746 0.430598 5.318e-21)
(1.18916 0.396267 -3.18904e-21)
(1.17378 0.364589 -4.44016e-20)
(1.16158 0.335523 4.35302e-20)
(1.15192 0.308906 1.20277e-20)
(1.14423 0.284472 -2.82318e-20)
(1.13813 0.26183 -2.17699e-20)
(1.13336 0.240653 1.21461e-19)
(1.12773 0.223181 5.8681e-20)
(0.381474 0.140331 -1.37949e-19)
(0.890252 0.37628 1.19828e-19)
(1.1376 0.486557 -7.06498e-20)
(1.21043 0.50143 1.37809e-20)
(1.21217 0.474749 1.45417e-20)
(1.19467 0.438341 -1.35277e-20)
(1.17698 0.402244 -5.93469e-20)
(1.16241 0.369284 4.31956e-20)
(1.15101 0.339207 2.72983e-21)
(1.14204 0.311791 -9.92794e-20)
(1.13498 0.286719 6.86109e-20)
(1.1295 0.263532 -8.64088e-21)
(1.12522 0.242019 5.03835e-20)
(1.12001 0.224266 -5.24415e-20)
(0.394797 0.156495 4.79768e-20)
(0.899023 0.401326 -6.36206e-20)
(1.1347 0.506721 6.60672e-20)
(1.19969 0.515691 -2.74302e-20)
(1.19873 0.484651 -1.60851e-20)
(1.18115 0.445667 2.25328e-20)
(1.16428 0.407865 4.83055e-20)
(1.15065 0.37366 -3.18625e-20)
(1.14011 0.342601 -5.52219e-20)
(1.1319 0.314413 1.47883e-19)
(1.12552 0.28872 -7.10015e-20)
(1.12069 0.265017 1.19688e-19)
(1.11694 0.243187 -1.03169e-19)
(1.1122 0.225154 8.30874e-20)
(0.40664 0.172997 -9.11245e-21)
(0.904926 0.425876 3.88981e-20)
(1.12932 0.526078 -1.90911e-19)
(1.18728 0.529199 2.89237e-20)
(1.18425 0.493973 1.0575e-20)
(1.16694 0.452537 1.79537e-20)
(1.15109 0.413094 3.52081e-20)
(1.1385 0.377685 2.66787e-20)
(1.12888 0.345681 7.2259e-20)
(1.1215 0.316747 -1.70287e-19)
(1.11586 0.290459 -7.72954e-20)
(1.11171 0.266267 -8.90035e-20)
(1.10853 0.244142 1.36785e-19)
(1.10429 0.225835 -5.80205e-20)
(0.416915 0.189714 4.25701e-20)
(0.908017 0.449789 6.65908e-20)
(1.12157 0.54454 7.32153e-20)
(1.1733 0.541901 -5.1426e-21)
(1.16878 0.502668 -3.1871e-21)
(1.1521 0.458912 -2.60076e-20)
(1.13742 0.417898 -7.55002e-20)
(1.12596 0.381328 -7.59895e-20)
(1.11736 0.348418 1.05531e-19)
(1.11086 0.318773 1.35351e-19)
(1.10601 0.291917 -5.72743e-20)
(1.10258 0.267268 9.76518e-20)
(1.1 0.24487 -1.03564e-19)
(1.09631 0.226298 -8.51362e-20)
(0.425552 0.206523 -8.59266e-20)
(0.908364 0.472928 -1.24055e-19)
(1.11157 0.562022 8.4541e-20)
(1.15785 0.553746 -5.06796e-22)
(1.15239 0.510688 6.37569e-21)
(1.13666 0.464751 -1.12048e-20)
(1.12329 0.422241 -2.69351e-20)
(1.11306 0.38456 1.21101e-19)
(1.10554 0.350788 -4.03906e-20)
(1.09999 0.320469 1.04314e-19)
(1.09597 0.293077 1.18077e-19)
(1.09331 0.268005 -1.40405e-19)
(1.09136 0.245359 -2.74544e-20)
(1.08826 0.226535 -7.08839e-20)
(0.432498 0.223296 -1.61542e-20)
(0.90605 0.495165 -8.54982e-20)
(1.09946 0.57844 -6.93872e-20)
(1.14102 0.564683 1.06348e-20)
(1.13517 0.517996 -2.01754e-20)
(1.12064 0.470002 4.72438e-21)
(1.10872 0.426089 3.89044e-20)
(1.0998 0.387353 -3.56295e-20)
(1.09344 0.352765 -2.9758e-20)
(1.0889 0.321814 -2.1403e-19)
(1.08577 0.293923 4.61204e-20)
(1.0839 0.268465 -7.7539e-20)
(1.08262 0.245595 8.52077e-20)
(1.08016 0.226535 1.36285e-19)
(0.437719 0.239905 8.54395e-20)
(0.901168 0.516373 4.81053e-20)
(1.08534 0.593715 4.10218e-20)
(1.12292 0.574656 -1.18832e-20)
(1.11716 0.524556 3.11906e-21)
(1.10405 0.474626 -1.58262e-20)
(1.09372 0.429403 8.17838e-20)
(1.08622 0.389675 2.8595e-20)
(1.08109 0.354326 6.34784e-20)
(1.07761 0.322789 1.00327e-19)
(1.07541 0.294438 -3.67515e-20)
(1.07436 0.268635 3.76236e-20)
(1.07378 0.245566 -1.07402e-19)
(1.07201 0.226289 -1.5089e-19)
(0.441197 0.256222 -1.24312e-19)
(0.89382 0.536436 1.92567e-19)
(1.06934 0.60777 -2.52954e-20)
(1.10365 0.583614 3.472e-20)
(1.09841 0.53032 1.02603e-20)
(1.08694 0.47859 -2.40365e-20)
(1.07833 0.432148 -1.07788e-19)
(1.07233 0.3915 -1.90731e-19)
(1.0685 0.355448 -2.88399e-19)
(1.06613 0.323375 -2.08392e-20)
(1.06492 0.294608 -3.29645e-22)
(1.06472 0.268501 1.57355e-19)
(1.06485 0.245259 1.37342e-19)
(1.06382 0.225787 1.27788e-19)
(0.442931 0.272122 2.31348e-20)
(0.884129 0.555244 -1.56817e-19)
(1.05159 0.620527 4.38448e-21)
(1.08329 0.591507 -1.69484e-20)
(1.07899 0.535245 4.50973e-20)
(1.06936 0.481856 2.92154e-21)
(1.06258 0.434292 1.43253e-19)
(1.05816 0.392801 1.86383e-19)
(1.05569 0.356109 2.02037e-19)
(1.0545 0.323552 -2.2544e-19)
(1.0543 0.294417 -3.61022e-20)
(1.05499 0.268052 -1.4244e-19)
(1.05585 0.244662 -8.1503e-21)
(1.05561 0.225018 -1.11854e-19)
(0.442942 0.287481 -1.23352e-19)
(0.872243 0.572714 9.43301e-20)
(1.03217 0.631899 1.0292e-20)
(1.06193 0.598279 -4.38969e-20)
(1.05893 0.539291 -3.22884e-21)
(1.05134 0.484387 5.64093e-20)
(1.0465 0.435804 -2.20127e-19)
(1.04373 0.393551 -2.2786e-19)
(1.04269 0.356287 -1.36023e-20)
(1.04272 0.323305 4.08094e-19)
(1.04358 0.293851 5.10161e-20)
(1.04517 0.267277 3.82959e-20)
(1.04679 0.243765 1.86208e-20)
(1.04739 0.223974 -8.07942e-21)
(0.441271 0.302173 1.49958e-19)
(0.858329 0.588789 -4.71393e-20)
(1.01115 0.641806 -3.98401e-20)
(1.03967 0.603866 3.81311e-20)
(1.03832 0.542417 -6.33046e-20)
(1.03292 0.48615 -1.08464e-21)
(1.03012 0.436654 -1.74016e-21)
(1.02908 0.393726 3.6991e-20)
(1.02952 0.355963 -6.358e-22)
(1.03081 0.322616 -7.72862e-20)
(1.03278 0.292898 -7.69382e-20)
(1.03529 0.266165 -1.65889e-19)
(1.03769 0.242555 -3.71185e-19)
(1.03917 0.222646 2.28394e-19)
(0.437977 0.316061 -4.95765e-20)
(0.842482 0.603382 2.73092e-20)
(0.988693 0.650226 6.23172e-20)
(1.0166 0.608206 1.77919e-19)
(1.0172 0.544584 -1.0661e-19)
(1.01415 0.487111 -2.63048e-19)
(1.01347 0.436815 1.54132e-19)
(1.01423 0.393304 3.38849e-20)
(1.01621 0.355118 -1.15377e-19)
(1.01881 0.32147 -2.28237e-19)
(1.02191 0.291544 -1.68455e-20)
(1.02537 0.264706 9.22782e-20)
(1.02855 0.241021 -1.27624e-19)
(1.03098 0.221021 1.66258e-19)
(0.433115 0.329022 2.94295e-20)
(0.824685 0.616305 -1.48457e-20)
(0.965059 0.657202 -1.6069e-19)
(0.992831 0.611267 -2.01397e-19)
(0.995645 0.545755 2.47978e-19)
(0.995076 0.487241 3.98152e-19)
(0.996604 0.436263 1.30846e-19)
(0.999218 0.392265 1.67257e-19)
(1.00278 0.353735 -4.92915e-20)
(1.00673 0.319853 9.92558e-20)
(1.011 0.28978 6.69871e-20)
(1.01542 0.26289 1.26867e-20)
(1.0194 0.239148 1.46902e-19)
(1.02282 0.219078 -3.40468e-19)
(0.426739 0.340985 7.26933e-21)
(0.805027 0.627402 -2.43402e-20)
(0.940403 0.66267 2.22224e-19)
(0.96845 0.613052 1.92743e-20)
(0.973715 0.545899 -1.8019e-19)
(0.975742 0.486511 -6.86701e-20)
(0.979546 0.434973 2.14395e-19)
(0.98407 0.390588 -7.33266e-20)
(0.989255 0.351799 1.59709e-19)
(0.994604 0.317752 1.58337e-19)
(1.00007 0.287594 -3.86604e-20)
(1.00546 0.26071 5.56664e-20)
(1.01025 0.236919 2.94719e-19)
(1.0147 0.216787 -4.08962e-20)
(0.418919 0.351889 -6.09458e-20)
(0.783736 0.636642 5.47859e-20)
(0.914795 0.666529 -1.27469e-19)
(0.94354 0.613537 3.39446e-20)
(0.951474 0.544986 -7.37805e-20)
(0.956197 0.484897 -3.27428e-19)
(0.962341 0.432926 -1.82472e-19)
(0.968822 0.388259 7.90057e-20)
(0.975673 0.349296 1.4639e-19)
(0.982449 0.315157 -4.28488e-20)
(0.989146 0.28498 4.93778e-21)
(0.9955 0.258159 8.57998e-21)
(1.00111 0.234327 2.0929e-20)
(1.0067 0.21415 5.75441e-19)
(0.4097 0.36164 -9.65987e-21)
(0.761039 0.644017 -1.03007e-19)
(0.888351 0.668718 -1.75114e-19)
(0.918192 0.612697 1.3524e-19)
(0.928985 0.542993 2.86877e-19)
(0.936491 0.482377 2.64982e-20)
(0.945029 0.430104 -9.16355e-20)
(0.95351 0.385261 -1.16957e-20)
(0.96206 0.346213 -1.14399e-19)
(0.970293 0.312056 8.52091e-20)
(0.978236 0.281926 7.98305e-20)
(0.985553 0.255223 -1.13356e-19)
(0.992062 0.231368 -1.42149e-19)
(0.999023 0.211224 8.10519e-20)
(0.399139 0.370106 -8.44897e-20)
(0.737112 0.649472 1.03083e-19)
(0.861188 0.669205 3.93766e-19)
(0.892493 0.610506 -6.60829e-20)
(0.906314 0.539898 -1.69836e-19)
(0.916678 0.47893 3.77584e-19)
(0.927656 0.42649 -1.54275e-19)
(0.938169 0.381583 -1.59537e-20)
(0.948448 0.342541 -3.87405e-19)
(0.958162 0.308442 -1.48967e-19)
(0.967353 0.278424 -9.29831e-20)
(0.975635 0.25188 -2.40545e-19)
(0.983221 0.228013 -1.56239e-19)
(0.991929 0.20805 -4.46984e-19)
(0.387373 0.377228 -3.63858e-20)
(0.712098 0.652951 1.96604e-19)
(0.833429 0.667963 -4.17237e-19)
(0.866536 0.606944 2.03906e-19)
(0.883528 0.535682 6.02035e-20)
(0.896808 0.474541 -5.84938e-19)
(0.910264 0.422073 5.75232e-20)
(0.922838 0.377214 -2.63322e-19)
(0.934868 0.338272 2.52051e-19)
(0.946079 0.30431 -3.25916e-21)
(0.956512 0.27447 1.53906e-19)
(0.965787 0.248118 5.3102e-19)
(0.974701 0.224193 -3.38774e-19)
(0.985185 0.204419 3.51789e-20)
(0.374524 0.382949 2.31771e-19)
(0.686149 0.654412 -1.93402e-19)
(0.805201 0.664972 4.95096e-19)
(0.840411 0.601992 -5.64794e-19)
(0.860694 0.530332 -7.29268e-20)
(0.876938 0.469197 -3.38329e-20)
(0.892898 0.416842 4.5014e-19)
(0.907555 0.372146 3.71196e-19)
(0.921352 0.333401 -2.91194e-19)
(0.934067 0.299658 -7.01902e-21)
(0.945738 0.270062 -1.79568e-19)
(0.956076 0.243959 -4.67533e-19)
(0.966494 0.219971 2.29509e-19)
(0.977938 0.199033 -4.23646e-20)
(0.360709 0.387216 -2.19153e-19)
(0.659418 0.653822 -1.99497e-19)
(0.776631 0.660218 -5.99225e-19)
(0.814208 0.59564 1.41462e-19)
(0.83788 0.523836 -1.44136e-19)
(0.857121 0.462889 1.45708e-19)
(0.875605 0.41079 -3.83279e-19)
(0.892357 0.366374 2.64239e-20)
(0.907934 0.327923 8.87907e-21)
(0.922153 0.294482 -3.70161e-19)
(0.935071 0.265197 2.33707e-19)
(0.946551 0.239414 2.76882e-19)
(0.95828 0.21577 1.26041e-19)
(0.969754 0.19498 4.98046e-19)
(0.346045 0.389982 2.67299e-19)
(0.632061 0.651162 5.64655e-19)
(0.747845 0.653693 2.78501e-19)
(0.788019 0.587879 1.25388e-19)
(0.815155 0.516187 3.53227e-19)
(0.837414 0.45561 5.31929e-19)
(0.858432 0.403912 1.12531e-19)
(0.877286 0.359896 7.55287e-20)
(0.894644 0.321837 6.10512e-19)
(0.910364 0.28878 -1.45717e-19)
(0.924544 0.259868 2.11622e-21)
(0.937207 0.234428 -2.79496e-19)
(0.950085 0.211069 2.16912e-19)
(0.961755 0.190324 7.00556e-21)
(0.330653 0.391213 3.79643e-19)
(0.604234 0.646419 -1.78003e-19)
(0.71897 0.645396 3.36225e-19)
(0.761936 0.578708 -6.73996e-20)
(0.792588 0.507382 3.08343e-20)
(0.817874 0.447359 -1.14475e-19)
(0.841426 0.396208 2.7844e-19)
(0.86238 0.35271 -5.68482e-21)
(0.881516 0.315143 -2.46179e-19)
(0.898731 0.282554 4.67008e-19)
(0.91418 0.254084 -2.16195e-19)
(0.928021 0.229049 1.55261e-19)
(0.941911 0.206083 -2.47036e-20)
(0.953914 0.185671 -6.22936e-19)
(0.314656 0.39088 -2.06311e-19)
(0.576092 0.63959 -4.52064e-19)
(0.690128 0.635333 -2.8395e-19)
(0.736049 0.568129 4.53043e-19)
(0.77025 0.497422 -4.31569e-20)
(0.798557 0.438136 1.53255e-19)
(0.824634 0.387679 -3.1894e-19)
(0.84768 0.34482 -4.99518e-19)
(0.868583 0.307844 2.59344e-19)
(0.887283 0.275804 -1.20062e-19)
(0.904003 0.247843 3.14387e-19)
(0.919004 0.223265 5.82108e-21)
(0.933825 0.200739 -3.83167e-19)
(0.946285 0.180754 2.08674e-20)
(0.298178 0.388968 -4.2281e-19)
(0.547786 0.63068 1.50881e-19)
(0.661442 0.623515 -3.28556e-19)
(0.710448 0.556151 -3.62669e-19)
(0.74821 0.486314 -1.39514e-19)
(0.779521 0.427946 1.22041e-19)
(0.808104 0.378329 -3.47444e-19)
(0.833225 0.336229 3.33078e-19)
(0.855879 0.299944 -4.56063e-19)
(0.876051 0.268537 3.05959e-19)
(0.894035 0.241152 3.08098e-19)
(0.910169 0.217091 -1.0033e-19)
(0.925874 0.195077 3.93825e-19)
(0.938882 0.175595 4.44841e-19)
(0.281341 0.385467 1.06428e-19)
(0.519469 0.619704 3.53278e-20)
(0.633032 0.609961 5.82489e-19)
(0.685221 0.542787 4.59812e-19)
(0.726536 0.474067 2.22216e-19)
(0.760822 0.416798 -1.31433e-19)
(0.791883 0.368168 -2.55112e-19)
(0.819054 0.326945 -1.56855e-19)
(0.843437 0.29145 1.82224e-19)
(0.865062 0.260758 -5.82948e-19)
(0.884296 0.234017 -2.85546e-19)
(0.901535 0.210531 -1.96222e-19)
(0.918095 0.189091 1.1523e-19)
(0.931712 0.170165 -6.89775e-19)
(0.264268 0.380379 4.66761e-20)
(0.491289 0.606686 -1.14592e-19)
(0.605016 0.594695 7.53836e-21)
(0.660456 0.528055 -6.27867e-19)
(0.705298 0.460695 -1.89046e-19)
(0.742517 0.404704 -3.80548e-19)
(0.776018 0.357205 8.08728e-20)
(0.805208 0.316977 -2.02381e-19)
(0.831291 0.28237 -1.24767e-19)
(0.854346 0.252474 2.25362e-19)
(0.874811 0.226445 -2.72039e-19)
(0.893124 0.203596 -8.88577e-20)
(0.910516 0.182788 -4.6667e-20)
(0.924783 0.164456 7.38179e-19)
(0.247081 0.373712 1.1822e-20)
(0.463393 0.591658 -1.18685e-19)
(0.577509 0.577748 1.66203e-19)
(0.636239 0.511979 2.00494e-19)
(0.684563 0.446217 3.84245e-20)
(0.724661 0.39168 6.60224e-19)
(0.760557 0.345454 -2.05257e-19)
(0.791725 0.306338 5.19504e-19)
(0.819474 0.272716 1.32798e-19)
(0.843929 0.243696 -3.96598e-19)
(0.8656 0.218446 2.87881e-19)
(0.884958 0.196292 5.43833e-19)
(0.90316 0.176172 -2.81348e-19)
(0.918101 0.158467 -5.40829e-19)
(0.2299 0.365482 1.37833e-19)
(0.435922 0.57466 -2.71402e-19)
(0.550622 0.559158 -1.00238e-18)
(0.612654 0.494589 -2.55537e-19)
(0.664398 0.430656 3.19407e-19)
(0.70731 0.377745 -2.20702e-21)
(0.745544 0.332932 2.26642e-19)
(0.778643 0.295043 -3.42127e-19)
(0.808019 0.2625 -5.13018e-19)
(0.833841 0.234434 3.81802e-19)
(0.856687 0.210029 3.94084e-20)
(0.877058 0.18863 -2.22908e-20)
(0.896049 0.169247 2.72738e-19)
(0.911675 0.152199 2.938e-19)
(0.212843 0.355714 -3.9909e-19)
(0.409015 0.555739 2.13155e-19)
(0.524464 0.538967 2.46229e-19)
(0.589782 0.475917 6.14482e-20)
(0.644868 0.414039 6.90365e-20)
(0.690518 0.362922 -4.43416e-19)
(0.731026 0.31966 -9.10413e-20)
(0.766001 0.283108 -1.13643e-19)
(0.796956 0.251736 6.78214e-19)
(0.824106 0.224702 1.04209e-19)
(0.848094 0.201207 2.08939e-20)
(0.869445 0.180619 -4.75739e-19)
(0.889199 0.16202 6.67415e-20)
(0.905514 0.145658 -1.67015e-19)
(0.196024 0.344443 2.10395e-19)
(0.382806 0.534952 9.41454e-19)
(0.499139 0.517227 4.88362e-19)
(0.567704 0.456002 5.79252e-19)
(0.626037 0.396397 -6.01307e-19)
(0.674338 0.347238 1.23924e-19)
(0.717045 0.305659 2.27506e-20)
(0.753836 0.270553 6.98702e-19)
(0.786316 0.240443 -7.41695e-19)
(0.81475 0.214515 -3.75729e-19)
(0.839843 0.191992 -2.36533e-19)
(0.862137 0.17227 -1.8674e-19)
(0.882628 0.154498 -3.34527e-19)
(0.899629 0.138853 2.27168e-19)
(0.179557 0.33171 -2.31062e-20)
(0.357423 0.512363 -3.61002e-19)
(0.474749 0.49399 1.60534e-19)
(0.546495 0.434888 1.19752e-21)
(0.607965 0.377765 1.94197e-19)
(0.658819 0.330721 1.52544e-21)
(0.703644 0.290954 1.72557e-19)
(0.742182 0.2574 1.06184e-19)
(0.776131 0.228639 6.97044e-19)
(0.8058 0.203888 6.56848e-19)
(0.831955 0.182398 2.70639e-19)
(0.855155 0.163595 4.71261e-19)
(0.876353 0.146691 1.7806e-19)
(0.894029 0.131792 3.77948e-20)
(0.16355 0.317562 2.43991e-19)
(0.332991 0.488041 -3.25904e-20)
(0.451388 0.469319 -1.36925e-19)
(0.52623 0.412623 -1.55652e-19)
(0.590712 0.358183 5.24004e-19)
(0.644012 0.313406 7.95192e-20)
(0.690865 0.275575 5.20628e-20)
(0.731075 0.243673 -5.55596e-19)
(0.766428 0.216344 2.74285e-19)
(0.79728 0.19284 -2.28963e-19)
(0.82445 0.172442 7.59513e-20)
(0.848514 0.154607 -5.15329e-19)
(0.870388 0.13861 1.44308e-19)
(0.888724 0.124488 7.01508e-20)
(0.148107 0.302057 5.62969e-20)
(0.309627 0.462063 -1.37199e-19)
(0.429149 0.443279 -4.10977e-19)
(0.506978 0.389258 6.01601e-19)
(0.574336 0.337692 -8.63669e-19)
(0.629965 0.295327 -2.64806e-19)
(0.678747 0.259551 -4.09949e-19)
(0.720547 0.229398 4.45757e-19)
(0.757236 0.203581 -4.62128e-19)
(0.789212 0.18139 -5.04477e-19)
(0.817349 0.16214 2.78202e-19)
(0.842232 0.145321 9.97296e-20)
(0.864747 0.130266 -1.30481e-19)
(0.883725 0.116951 -1.19596e-19)
(0.133326 0.285256 -5.64128e-19)
(0.287443 0.434514 -2.94433e-19)
(0.40812 0.415941 1.24205e-19)
(0.488808 0.36485 -2.94706e-19)
(0.558891 0.316339 2.5962e-19)
(0.616722 0.276525 3.37336e-19)
(0.667328 0.242916 1.81274e-19)
(0.71063 0.214604 -1.05773e-19)
(0.748582 0.190375 -4.32799e-19)
(0.781618 0.169559 1.9022e-19)
(0.810669 0.151509 1.78099e-19)
(0.836325 0.135751 2.3212e-19)
(0.859445 0.121673 5.09454e-20)
(0.879039 0.109196 -2.26523e-19)
(0.119303 0.26723 8.05562e-20)
(0.266544 0.405484 2.74769e-19)
(0.388381 0.387382 3.79642e-19)
(0.471781 0.33946 -6.6643e-19)
(0.544427 0.294174 -5.57334e-19)
(0.604325 0.25704 -2.94052e-19)
(0.656644 0.225706 -5.00424e-19)
(0.701356 0.19932 2.32491e-19)
(0.740489 0.176751 5.90138e-19)
(0.774521 0.15737 2.98047e-19)
(0.804428 0.14057 -3.07205e-19)
(0.830808 0.125915 -2.92669e-19)
(0.854494 0.112843 2.42083e-19)
(0.874677 0.101235 1.65598e-19)
(0.106124 0.248052 -3.44231e-19)
(0.247028 0.375069 2.87285e-19)
(0.37001 0.35768 -2.26058e-19)
(0.455958 0.313151 4.02771e-19)
(0.530994 0.271249 8.7369e-22)
(0.592817 0.236917 2.86661e-19)
(0.646729 0.207957 2.48194e-19)
(0.692751 0.18358 -2.75278e-19)
(0.732984 0.162737 -3.08036e-19)
(0.76794 0.144846 -8.25537e-20)