/*--------------------------------*- C++ -*----------------------------------*\
  =========                 |
  \\      /  F ield         | OpenFOAM: The Open Source CFD Toolbox
   \\    /   O peration     | Website:  https://openfoam.org
    \\  /    A nd           | Version:  7
     \\/     M anipulation  |
\*---------------------------------------------------------------------------*/
FoamFile
{
    version     2.0;
    format      ascii;
    class       volScalarField;
    location    "5";
    object      p;
}
// * * * * * * * * * * * * * * * * * * * * * * * * * * * * * * * * * * * * * //

dimensions      [0 2 -2 0 0 0 0];

internalField   nonuniform List<scalar> 
6386
(
-0.43016
-0.440252
-0.450695
-0.461441
-0.448127
-0.472438
-0.457371
-0.483626
-0.466793
-0.453774
-0.494942
-0.476342
-0.462197
-0.447882
-0.506316
-0.485962
-0.47071
-0.455418
-0.517675
-0.495594
-0.479259
-0.46301
-0.446882
-0.528941
-0.505171
-0.487787
-0.470604
-0.45362
-0.437212
-0.540029
-0.514619
-0.496227
-0.478138
-0.4603
-0.443066
-0.426502
-0.550847
-0.523854
-0.504503
-0.48554
-0.466851
-0.448748
-0.431205
-0.413912
-0.561291
-0.532786
-0.512527
-0.492725
-0.473185
-0.454169
-0.43555
-0.416917
-0.397747
-0.571248
-0.541309
-0.520202
-0.499597
-0.479205
-0.459229
-0.439444
-0.419359
-0.398433
-0.385286
-0.580592
-0.549311
-0.52742
-0.506047
-0.484802
-0.46382
-0.442784
-0.421155
-0.398426
-0.381945
-0.589185
-0.556668
-0.53406
-0.511957
-0.489855
-0.467822
-0.445462
-0.422217
-0.397662
-0.378
-0.596877
-0.563243
-0.539992
-0.517198
-0.494234
-0.471107
-0.447359
-0.422449
-0.396069
-0.373412
-0.603509
-0.568892
-0.545076
-0.521629
-0.497801
-0.473541
-0.448354
-0.421748
-0.393565
-0.368121
-0.608913
-0.573464
-0.549164
-0.525105
-0.50041
-0.474984
-0.448319
-0.420009
-0.390067
-0.362055
-0.612914
-0.576798
-0.552102
-0.527472
-0.501912
-0.475293
-0.447128
-0.417127
-0.385489
-0.355139
-0.615333
-0.578733
-0.553731
-0.528573
-0.502152
-0.474326
-0.444655
-0.412996
-0.379749
-0.347295
-0.61599
-0.579101
-0.553888
-0.528249
-0.500978
-0.47194
-0.440777
-0.407519
-0.372767
-0.338447
-0.614706
-0.577738
-0.552412
-0.526342
-0.498239
-0.468
-0.435378
-0.400602
-0.364472
-0.328527
-0.611309
-0.57448
-0.549143
-0.522694
-0.493787
-0.462375
-0.428352
-0.392163
-0.354803
-0.317476
-0.60563
-0.569171
-0.543926
-0.517159
-0.487486
-0.454945
-0.419601
-0.382131
-0.343707
-0.305243
-0.597516
-0.561662
-0.536617
-0.509595
-0.479208
-0.445605
-0.409044
-0.370446
-0.331145
-0.291792
-0.586825
-0.551817
-0.527079
-0.499874
-0.46884
-0.434261
-0.396613
-0.357064
-0.31709
-0.277095
-0.573433
-0.539513
-0.515193
-0.487885
-0.456284
-0.420838
-0.382257
-0.341956
-0.301529
-0.261136
-0.557235
-0.524645
-0.500854
-0.473531
-0.441462
-0.40528
-0.365943
-0.325108
-0.28446
-0.243914
-0.538151
-0.507128
-0.48398
-0.456738
-0.424316
-0.387551
-0.347657
-0.306522
-0.2659
-0.22544
-0.516122
-0.4869
-0.464508
-0.437454
-0.404811
-0.367636
-0.327402
-0.286216
-0.24588
-0.20575
-0.491121
-0.463923
-0.442401
-0.41565
-0.382935
-0.345544
-0.305203
-0.264222
-0.224436
-0.184844
-0.463146
-0.438185
-0.417648
-0.391325
-0.358703
-0.321305
-0.281103
-0.240589
-0.201585
-0.162569
-0.432227
-0.409702
-0.390265
-0.364504
-0.332153
-0.294972
-0.255169
-0.215396
-0.177388
-0.138779
-0.398422
-0.378521
-0.360296
-0.335239
-0.30335
-0.266624
-0.227486
-0.188728
-0.152055
-0.114801
-0.361824
-0.344716
-0.327815
-0.303611
-0.272385
-0.236359
-0.198155
-0.160661
-0.125355
-0.0899575
-0.322552
-0.30839
-0.292925
-0.269727
-0.239375
-0.204297
-0.167295
-0.131325
-0.0976564
-0.0641229
-0.28076
-0.269677
-0.255755
-0.233724
-0.204459
-0.170574
-0.135043
-0.100843
-0.0690534
-0.0374849
-0.236628
-0.228736
-0.216463
-0.195762
-0.167783
-0.135364
-0.101554
-0.0693539
-0.0396495
-0.0102082
-0.190356
-0.185761
-0.175233
-0.156008
-0.129559
-0.0988351
-0.0669953
-0.037012
-0.00957825
0.0175417
-0.142151
-0.140987
-0.132272
-0.114687
-0.0899702
-0.0611815
-0.0315501
-0.00398226
0.021018
0.0455734
-0.0923301
-0.0946073
-0.0878123
-0.0720193
-0.0492353
-0.0226102
0.00458779
0.0295711
0.0520074
0.07359
-0.04116
-0.0468879
-0.042103
-0.0282457
-0.00758624
0.0166613
0.041218
0.0634951
0.083243
0.101054
0.0110847
0.00188043
0.00458827
0.0163775
0.034735
0.0564077
0.0781403
0.0976316
0.114423
0.127218
0.0640907
0.0514062
0.0519805
0.0615822
0.0774786
0.0964039
0.115168
0.131779
0.144933
0.151277
0.117531
0.101385
0.0997806
0.107091
0.12039
0.13643
0.152134
0.165723
0.174144
0.174309
0.17107
0.151502
0.147686
0.152619
0.163208
0.17626
0.188832
0.199376
0.204709
0.203135
0.224368
0.201434
0.195389
0.197877
0.205666
0.21565
0.225023
0.232405
0.234896
0.231785
0.277078
0.250855
0.242576
0.242572
0.247499
0.254357
0.260484
0.264628
0.26419
0.259246
0.328857
0.299438
0.288937
0.286417
0.288444
0.292145
0.29501
0.2959
0.292523
0.285506
0.379362
0.346858
0.334164
0.329126
0.328244
0.328789
0.328403
0.326063
0.319785
0.310552
0.428258
0.392795
0.377953
0.37042
0.366651
0.364072
0.360479
0.354964
0.345845
0.334334
0.475218
0.436937
0.42001
0.410029
0.403426
0.397786
0.391063
0.382459
0.370586
0.356786
0.519928
0.478984
0.460051
0.447695
0.438339
0.429734
0.419988
0.408415
0.393899
0.377843
0.562084
0.518647
0.497805
0.48317
0.471172
0.45973
0.447099
0.432704
0.415683
0.397441
0.601402
0.555653
0.533015
0.516221
0.501722
0.487599
0.47225
0.455205
0.435838
0.415513
0.637613
0.589746
0.56544
0.546632
0.529798
0.513177
0.495304
0.475807
0.454274
0.431996
0.670472
0.620691
0.59486
0.574202
0.555225
0.536317
0.516137
0.494404
0.470903
0.446828
0.699752
0.648271
0.621072
0.59875
0.577844
0.556881
0.534634
0.510904
0.485645
0.459951
0.725252
0.672294
0.643898
0.620113
0.597513
0.57475
0.550694
0.52522
0.49843
0.471312
0.746796
0.692591
0.663179
0.638149
0.61411
0.589817
0.564228
0.537279
0.509193
0.480861
0.764235
0.709021
0.678782
0.65274
0.627529
0.601994
0.57516
0.547016
0.517881
0.488555
0.777446
0.721466
0.690599
0.663786
0.637686
0.611208
0.58343
0.55438
0.524449
0.494357
0.786336
0.729839
0.698548
0.671215
0.644515
0.617402
0.58899
0.559332
0.528865
0.498257
0.790842
0.734079
0.702571
0.674975
0.647971
0.620538
0.591807
0.561844
0.53112
0.500288
0.790931
0.734155
0.702641
0.67504
0.648032
0.620595
0.591862
0.561897
0.53118
0.50038
0.786601
0.730064
0.698755
0.671408
0.644695
0.617571
0.589151
0.559485
0.529024
0.498455
0.77788
0.721836
0.690939
0.664103
0.637981
0.611483
0.583687
0.554619
0.524675
0.494582
0.764826
0.709525
0.679246
0.65317
0.627929
0.602365
0.575502
0.547327
0.51816
0.488796
0.74753
0.693217
0.663755
0.638684
0.614604
0.590271
0.56464
0.537647
0.509514
0.481119
0.726109
0.673027
0.644573
0.620738
0.598089
0.575274
0.551164
0.525633
0.49878
0.471582
0.700713
0.649095
0.621831
0.599451
0.578487
0.557463
0.53515
0.511349
0.486015
0.460227
0.671514
0.621589
0.595686
0.574965
0.555921
0.536943
0.516686
0.494872
0.471284
0.447103
0.638716
0.590699
0.566318
0.547441
0.530534
0.513835
0.495876
0.476287
0.45466
0.432265
0.602542
0.556643
0.533927
0.517062
0.502485
0.488277
0.472835
0.455691
0.436223
0.415771
0.563242
0.519656
0.498737
0.484028
0.47195
0.460418
0.447688
0.433188
0.416062
0.397684
0.521083
0.479996
0.460987
0.448558
0.43912
0.430423
0.420574
0.408893
0.394269
0.378069
0.476354
0.437937
0.420937
0.410884
0.4042
0.398467
0.39164
0.382926
0.370944
0.356992
0.429358
0.393768
0.378858
0.371256
0.367409
0.364738
0.361042
0.355416
0.346188
0.334518
0.380413
0.347794
0.335036
0.329935
0.328978
0.329435
0.328948
0.326499
0.320114
0.310715
0.329849
0.300326
0.289768
0.28719
0.289147
0.292766
0.295534
0.296319
0.292839
0.285653
0.278002
0.251688
0.243358
0.243303
0.248167
0.254949
0.260987
0.265031
0.264496
0.259387
0.225217
0.202205
0.196116
0.19856
0.206295
0.216212
0.225503
0.232793
0.235198
0.231947
0.171841
0.152207
0.148355
0.153252
0.163795
0.176789
0.189289
0.19975
0.205018
0.203381
0.11822
0.102021
0.100388
0.107671
0.120933
0.136925
0.15257
0.166089
0.174471
0.174683
0.0646982
0.051972
0.0525255
0.0621071
0.0779763
0.0968643
0.115583
0.13214
0.145269
0.151784
0.0116109
0.00237612
0.00507013
0.0168471
0.0351865
0.0568323
0.0785311
0.0979828
0.11475
0.127642
-0.0407131
-0.0464612
-0.0416836
-0.0278312
-0.00718118
0.017049
0.0415817
0.0638299
0.0835533
0.101396
-0.0919596
-0.0942475
-0.0874538
-0.0716589
-0.0488764
-0.0222597
0.00492295
0.0298858
0.0523017
0.0738908
-0.141853
-0.140691
-0.131972
-0.114379
-0.0896563
-0.060868
-0.0312437
-0.0036888
0.0212969
0.0458511
-0.190126
-0.185526
-0.174989
-0.155751
-0.129289
-0.0985577
-0.0667175
-0.0367399
-0.00931503
0.0178017
-0.236461
-0.228558
-0.216272
-0.195552
-0.167555
-0.135121
-0.101304
-0.0691029
-0.039402
-0.00996292
-0.280652
-0.269551
-0.255611
-0.233558
-0.20427
-0.170365
-0.13482
-0.100613
-0.0688212
-0.0372523
-0.322497
-0.308311
-0.292826
-0.269603
-0.239223
-0.20412
-0.167098
-0.131115
-0.0974394
-0.063902
-0.361816
-0.34468
-0.327757
-0.303524
-0.272268
-0.236212
-0.197983
-0.16047
-0.125153
-0.0897481
-0.398456
-0.378524
-0.360274
-0.335187
-0.303264
-0.266505
-0.227338
-0.188556
-0.151868
-0.114605
-0.432297
-0.409739
-0.390275
-0.364482
-0.332095
-0.294879
-0.255042
-0.215242
-0.177214
-0.138605
-0.463248
-0.43825
-0.417686
-0.39133
-0.358671
-0.321235
-0.280997
-0.240452
-0.201422
-0.162395
-0.491249
-0.464013
-0.442463
-0.415678
-0.382926
-0.345495
-0.305116
-0.264101
-0.224287
-0.184676
-0.516271
-0.48701
-0.46459
-0.437502
-0.404821
-0.367607
-0.327333
-0.286111
-0.245745
-0.205593
-0.538316
-0.507255
-0.484078
-0.456803
-0.424344
-0.387538
-0.347604
-0.306432
-0.265778
-0.225295
-0.557414
-0.524785
-0.500966
-0.47361
-0.441504
-0.405282
-0.365904
-0.325032
-0.284351
-0.243779
-0.57362
-0.539662
-0.515314
-0.487975
-0.456338
-0.420852
-0.382231
-0.341893
-0.301432
-0.261012
-0.587019
-0.551973
-0.527208
-0.499972
-0.468903
-0.434286
-0.396599
-0.357013
-0.317004
-0.276981
-0.597713
-0.561822
-0.53675
-0.509699
-0.479279
-0.445639
-0.40904
-0.370405
-0.33107
-0.291688
-0.605827
-0.569332
-0.544062
-0.517267
-0.487562
-0.454987
-0.419606
-0.382099
-0.343641
-0.305149
-0.611504
-0.574641
-0.549279
-0.522804
-0.493867
-0.462422
-0.428363
-0.39214
-0.354746
-0.31739
-0.614898
-0.577896
-0.552547
-0.526452
-0.49832
-0.468051
-0.435396
-0.400586
-0.364424
-0.32845
-0.616176
-0.579256
-0.554021
-0.528358
-0.501061
-0.471994
-0.4408
-0.407509
-0.372726
-0.338377
-0.615512
-0.578883
-0.55386
-0.52868
-0.502234
-0.474381
-0.444681
-0.412992
-0.379714
-0.347233
-0.613085
-0.576943
-0.552227
-0.527576
-0.501992
-0.475348
-0.447157
-0.417126
-0.38546
-0.355084
-0.609076
-0.573602
-0.549283
-0.525205
-0.500488
-0.475039
-0.448349
-0.420012
-0.390043
-0.362006
-0.603663
-0.569023
-0.545189
-0.521724
-0.497876
-0.473595
-0.448384
-0.421754
-0.393546
-0.368077
-0.597021
-0.563366
-0.540099
-0.517288
-0.494306
-0.471159
-0.44739
-0.422457
-0.396053
-0.373374
-0.589319
-0.556783
-0.53416
-0.512042
-0.489923
-0.467872
-0.445492
-0.422227
-0.39765
-0.377968
-0.580717
-0.549419
-0.527514
-0.506127
-0.484866
-0.463868
-0.442814
-0.421165
-0.398416
-0.381917
-0.571364
-0.541409
-0.52029
-0.499671
-0.479265
-0.459274
-0.439472
-0.41937
-0.398425
-0.385263
-0.561398
-0.532878
-0.512608
-0.492794
-0.47324
-0.45421
-0.435577
-0.416928
-0.550944
-0.523939
-0.504577
-0.485603
-0.466902
-0.448786
-0.43123
-0.413923
-0.540118
-0.514696
-0.496296
-0.478196
-0.460348
-0.443102
-0.426525
-0.529021
-0.505242
-0.48785
-0.470657
-0.453663
-0.437244
-0.517747
-0.495659
-0.479316
-0.463058
-0.446921
-0.506381
-0.48602
-0.470761
-0.455462
-0.495
-0.476394
-0.462244
-0.447922
-0.483678
-0.46684
-0.453816
-0.472484
-0.457413
-0.461482
-0.448165
-0.450731
-0.440284
-0.272113
-0.282798
-0.292401
-0.300952
-0.308494
-0.315084
-0.320792
-0.325705
-0.329925
-0.333564
-0.336752
-0.246564
-0.257066
-0.266764
-0.275692
-0.283894
-0.291424
-0.298348
-0.304742
-0.310696
-0.316309
-0.321691
-0.223564
-0.233751
-0.243362
-0.252424
-0.260968
-0.269031
-0.276659
-0.2839
-0.290813
-0.297461
-0.303914
-0.202672
-0.212356
-0.221614
-0.230468
-0.238942
-0.247065
-0.254869
-0.262393
-0.26968
-0.276779
-0.283747
-0.183802
-0.192936
-0.201758
-0.210287
-0.218544
-0.226555
-0.234346
-0.24195
-0.249405
-0.256752
-0.26404
-0.16677
-0.175336
-0.183676
-0.191807
-0.199746
-0.207516
-0.21514
-0.222644
-0.23006
-0.237422
-0.244771
-0.151355
-0.159349
-0.167178
-0.174857
-0.182402
-0.18983
-0.197163
-0.204421
-0.211631
-0.218822
-0.226027
-0.137363
-0.144792
-0.152101
-0.159302
-0.16641
-0.173438
-0.180403
-0.187325
-0.194224
-0.201124
-0.208054
-0.124622
-0.131504
-0.138298
-0.145014
-0.151664
-0.15826
-0.164816
-0.171346
-0.177869
-0.184403
-0.190972
-0.112987
-0.119344
-0.125635
-0.131871
-0.138059
-0.14421
-0.150334
-0.156445
-0.162556
-0.168681
-0.17484
-0.102334
-0.108191
-0.113999
-0.119766
-0.125499
-0.131206
-0.136895
-0.142576
-0.14826
-0.153959
-0.159686
-0.0925581
-0.0979427
-0.103291
-0.108608
-0.1139
-0.119173
-0.124434
-0.12969
-0.134949
-0.14022
-0.145514
-0.0835709
-0.0885127
-0.0934264
-0.0983165
-0.103187
-0.108044
-0.112891
-0.117734
-0.12258
-0.127435
-0.132307
-0.0752973
-0.0798261
-0.0843329
-0.088821
-0.0932938
-0.0977551
-0.102209
-0.106659
-0.11111
-0.115568
-0.120037
-0.0676733
-0.0718189
-0.0759468
-0.0800595
-0.0841596
-0.08825
-0.0923336
-0.0964137
-0.100493
-0.104576
-0.108667
-0.0606449
-0.0644359
-0.0682126
-0.0719767
-0.0757301
-0.079475
-0.0832136
-0.0869481
-0.0906811
-0.0944152
-0.0981533
-0.0541544
-0.0576208
-0.0610751
-0.0645183
-0.067952
-0.0713777
-0.0747971
-0.078212
-0.0816241
-0.0850355
-0.0884481
-0.048172
-0.0513396
-0.0544962
-0.0576434
-0.0607821
-0.0639134
-0.0670384
-0.0701585
-0.0732749
-0.076389
-0.0795024
-0.0426434
-0.0455394
-0.0484255
-0.0513028
-0.0541719
-0.0570337
-0.0598891
-0.062739
-0.0655844
-0.0684263
-0.0712657
-0.0375509
-0.0401969
-0.0428343
-0.0454636
-0.0480854
-0.0507001
-0.0533083
-0.0559107
-0.0585079
-0.0611007
-0.0636898
-0.0328501
-0.0352693
-0.0376806
-0.0400844
-0.0424808
-0.0448703
-0.0472531
-0.0496298
-0.0520007
-0.0543663
-0.0567271
-0.0285169
-0.0307297
-0.0329352
-0.0351335
-0.0373246
-0.0395088
-0.0416862
-0.0438571
-0.0460217
-0.0481804
-0.0503335
-0.0524813
-0.0245236
-0.026549
-0.0285674
-0.0305788
-0.0325833
-0.0345808
-0.0365713
-0.0385551
-0.0405322
-0.0425027
-0.0444669
-0.046425
-0.0208474
-0.0227024
-0.0245509
-0.0263926
-0.0282274
-0.0300553
-0.0318761
-0.0336898
-0.0354965
-0.0372962
-0.0390889
-0.0408747
-0.0174652
-0.0191658
-0.0208602
-0.022548
-0.0242289
-0.0259029
-0.0275697
-0.0292292
-0.0308813
-0.0325261
-0.0341634
-0.0357932
-0.0143568
-0.0159181
-0.017473
-0.0190213
-0.0205628
-0.0220973
-0.0236246
-0.0251444
-0.0266566
-0.0281611
-0.0296577
-0.0311465
-0.0115057
-0.0129404
-0.0143689
-0.015791
-0.0172062
-0.0186145
-0.0200154
-0.0214088
-0.0227944
-0.024172
-0.0255416
-0.0269029
-0.00889532
-0.0102155
-0.0115296
-0.0128374
-0.0141385
-0.0154326
-0.0167193
-0.0179984
-0.0192697
-0.0205329
-0.0217877
-0.0230341
-0.00650926
-0.00772616
-0.00893715
-0.0101419
-0.0113399
-0.012531
-0.0137148
-0.0148909
-0.0160591
-0.0172192
-0.0183708
-0.0195137
-0.00433508
-0.00545889
-0.00657689
-0.00768869
-0.00879392
-0.00989221
-0.0109832
-0.0120666
-0.0131422
-0.0142095
-0.0152683
-0.0163185
-0.00236007
-0.00340017
-0.00443456
-0.00546284
-0.00648464
-0.00749958
-0.00850732
-0.00950752
-0.0104999
-0.0114841
-0.0124598
-0.0134269
-0.000573656
-0.00153869
-0.00249812
-0.00345154
-0.00439857
-0.00533884
-0.00627201
-0.00719773
-0.00811569
-0.00902558
-0.00992712
-0.01082
0.00103388
0.000135901
-0.000756567
-0.00164314
-0.00252343
-0.00339709
-0.00426376
-0.00512311
-0.00597481
-0.00681858
-0.00765412
-0.00848117
0.00247075
0.00163238
0.00079941
-2.77742e-05
-0.000848808
-0.00166333
-0.00247101
-0.00327152
-0.00406453
-0.00484977
-0.00562694
-0.00639578
0.00374401
0.00295827
0.00217781
0.00140302
0.000634245
-0.00012817
-0.000883893
-0.00163261
-0.00237401
-0.00310781
-0.00383374
-0.00455155
0.00485915
0.00411943
0.00338489
0.00265589
0.00193276
0.00121583
0.000505435
-0.000198138
-0.000894591
-0.00158365
-0.00226505
-0.00293855
0.00582048
0.00512047
0.00442553
0.003736
0.00305219
0.00237443
0.00170301
0.00103822
0.000380343
-0.000270361
-0.00091364
-0.00154926
0.00662989
0.00596354
0.00530215
0.00464603
0.00399549
0.00335082
0.00271231
0.00208022
0.00145482
0.000836351
0.000225057
-0.000378847
0.00728869
0.00664995
0.00601605
0.00538729
0.00476395
0.00414631
0.00353462
0.00292915
0.00233013
0.0017378
0.00115238
0.000574077
0.00779325
0.00717638
0.00656425
0.00595713
0.00535527
0.00475891
0.0041683
0.00358367
0.00300523
0.00243319
0.00186777
0.00130913
0.00814144
0.00753983
0.00694285
0.00635075
0.00576376
0.0051821
0.004606
0.00403566
0.00347129
0.00291308
0.00236121
0.00181586
0.00832068
0.00772948
0.00714281
0.00656085
0.00598378
0.00541179
0.00484503
0.00428369
0.00372791
0.00317787
0.00263371
0.00209557
0.143927
0.115659
0.0878454
0.0623218
0.0368865
0.0115616
-0.0132704
-0.0375071
-0.0611021
-0.0840035
-0.106231
-0.127795
-0.147418
-0.166667
-0.184949
-0.202162
-0.218329
-0.233428
-0.247431
-0.260326
0.13093
0.105204
0.0783276
0.0548286
0.0319399
0.00915392
-0.0131002
-0.0346943
-0.0556308
-0.0758769
-0.0953854
-0.114048
-0.131451
-0.14923
-0.165838
-0.181416
-0.19614
-0.210026
-0.223058
-0.235233
0.113467
0.0893921
0.0647939
0.0437555
0.0236543
0.00371479
-0.0157332
-0.034561
-0.0528015
-0.0704644
-0.0875447
-0.104118
-0.1203
-0.134968
-0.149466
-0.163419
-0.176709
-0.189359
-0.201381
-0.212779
0.0972483
0.075683
0.0540094
0.035485
0.0178512
0.000361291
-0.0167194
-0.0332579
-0.0492809
-0.064807
-0.0798265
-0.0943356
-0.108339
-0.12166
-0.134747
-0.147326
-0.159364
-0.1709
-0.181957
-0.192544
0.0833133
0.0641595
0.0452052
0.0289243
0.013412
-0.00196628
-0.0169958
-0.0315586
-0.0456774
-0.0593764
-0.0726577
-0.085521
-0.0979762
-0.110014
-0.12166
-0.132956
-0.143861
-0.154382
-0.164538
-0.174341
0.071569
0.0545166
0.0379529
0.0236424
0.00996963
-0.00357781
-0.0168248
-0.0296755
-0.0421515
-0.0542785
-0.0660644
-0.0775148
-0.0886458
-0.0994764
-0.109884
-0.120071
-0.129972
-0.139577
-0.148903
-0.157964
0.0616558
0.0464737
0.0320108
0.0194392
0.00737668
-0.00457789
-0.0162768
-0.0276444
-0.0387011
-0.0494704
-0.0599612
-0.0701792
-0.080133
-0.0898288
-0.0992368
-0.108487
-0.117493
-0.126265
-0.134824
-0.143184
0.0533177
0.0398119
0.0271798
0.0161288
0.00547087
-0.00510042
-0.0154567
-0.0255389
-0.035366
-0.0449591
-0.0543271
-0.0634763
-0.0724148
-0.0811507
-0.0896821
-0.0980453
-0.106234
-0.114248
-0.122101
-0.129802
0.0463439
0.0343314
0.0232845
0.0135547
0.00411958
-0.00525
-0.0144405
-0.0234059
-0.032164
-0.0407333
-0.0491221
-0.0573368
-0.0653852
-0.0732801
-0.0810362
-0.0885841
-0.0960303
-0.103357
-0.110558
-0.117643
0.0405353
0.0298465
0.0201686
0.0115854
0.00321564
-0.00510764
-0.013283
-0.0212744
-0.0290985
-0.0367708
-0.0442986
-0.0516871
-0.0589426
-0.0660723
-0.0730833
-0.0799645
-0.0867576
-0.0934517
-0.100049
-0.106558
0.0357156
0.0261971
0.0177017
0.0101142
0.00267404
-0.00473602
-0.0120247
-0.019164
-0.0261691
-0.0330528
-0.0398213
-0.0464791
-0.0530315
-0.0594842
-0.0658412
-0.0720998
-0.0782997
-0.0844144
-0.0904522
-0.0964233
0.0317346
0.0232493
0.0157762
0.00905442
0.00242713
-0.00418381
-0.0106958
-0.0170871
-0.0233713
-0.0295593
-0.0356558
-0.0416647
-0.0475905
-0.0534378
-0.0592106
-0.0649103
-0.0705537
-0.0761353
-0.0816593
-0.0871319
0.0284652
0.0208912
0.0143031
0.00833561
0.00242061
-0.00348919
-0.00931886
-0.0150514
-0.0206992
-0.0262711
-0.031771
-0.037202
-0.0425678
-0.0478724
-0.0531217
-0.0583226
-0.0634456
-0.0685351
-0.0735862
-0.078597
0.0257996
0.0190296
0.013209
0.00790006
0.00261077
-0.00268217
-0.0079105
-0.0130611
-0.0181448
-0.0231691
-0.0281366
-0.0330499
-0.0379115
-0.0427246
-0.0474921
-0.0522175
-0.056897
-0.0615446
-0.0661597
-0.070743
0.0236468
0.0175868
0.0124328
0.00770004
0.00296166
-0.00178722
-0.00648429
-0.0111193
-0.0157021
-0.0202386
-0.0247307
-0.0291802
-0.0335892
-0.0379601
-0.042295
-0.0465963
-0.0508638
-0.0551046
-0.0593186
-0.0635074
0.0219298
0.0164972
0.0119232
0.00769559
0.00344327
-0.000824727
-0.00505143
-0.00922888
-0.0133659
-0.0174671
-0.0215339
-0.0255674
-0.0295694
-0.0335417
-0.0374861
-0.0414039
-0.045295
-0.0491674
-0.0530137
-0.0568381
0.0205826
0.0157056
0.0116371
0.00785306
0.00403044
0.00018843
-0.00362082
-0.00739109
-0.0111301
-0.0148417
-0.0185263
-0.0221847
-0.0258176
-0.0294262
-0.033011
-0.0365675
-0.0400862
-0.0436586
-0.0471828
-0.050676
0.0195487
0.0151644
0.0115368
0.00814267
0.00470023
0.00123576
-0.00220308
-0.00561144
-0.00899633
-0.0123608
-0.0157052
-0.0190301
-0.0223364
-0.0256252
-0.0288979
-0.0321613
-0.0354255
-0.0386039
-0.0417975
-0.0449912
0.0187795
0.0148329
0.0115905
0.00853973
0.00543439
0.00230544
-0.000803537
-0.00388871
-0.00695624
-0.0100084
-0.0130452
-0.0160666
-0.019073
-0.0220647
-0.0250419
-0.0280052
-0.0309559
-0.0338904
-0.0368179
-0.0397363
0.0182326
0.0146756
0.0117703
0.009022
0.00621579
0.00338519
0.000569909
-0.00222695
-0.00501086
-0.00778359
-0.0105449
-0.0132945
-0.0160326
-0.0187595
-0.0214753
-0.0241803
-0.0268747
-0.0295579
-0.0322316
-0.034896
0.0178713
0.0146617
0.0120515
0.00957006
0.00702953
0.00446449
0.00191103
-0.000628316
-0.00315836
-0.00568046
-0.00819416
-0.0106991
-0.0131952
-0.0156824
-0.0181609
-0.0206306
-0.0230916
-0.0255436
-0.0279873
-0.0304228
0.0176635
0.014764
0.0124125
0.0101666
0.00786224
0.00553375
0.00321382
0.000904568
-0.00139821
-0.00369556
-0.00598686
-0.00827163
-0.0105497
-0.0128208
-0.015085
-0.017342
-0.0195917
-0.0218339
-0.024069
-0.0262967
0.0175809
0.0149588
0.0128343
0.0107965
0.0087022
0.00658458
0.00447309
0.00236957
0.000270358
-0.00182532
-0.00391677
-0.00600341
-0.00808492
-0.0101611
-0.0122315
-0.0142961
-0.0163546
-0.0184066
-0.0204523
-0.0224914
0.017599
0.0152252
0.0133002
0.0114463
0.0095389
0.00760936
0.00568402
0.00376451
0.00184767
-6.70522e-05
-0.00197892
-0.0038873
-0.00579178
-0.00769201
-0.00958766
-0.0114784
-0.0133638
-0.0152436
-0.0171179
-0.0189858
0.0176962
0.015545
0.0137955
0.0121044
0.0103636
0.0086019
0.00684295
0.00508817
0.00333487
0.00158266
-0.00016769
-0.0019155
-0.00366031
-0.00540169
-0.00713925
-0.00887256
-0.0106009
-0.0123233
-0.0140446
-0.0157583
0.017854
0.0159023
0.0143075
0.0127605
0.011168
0.00955617
0.00794592
0.00633854
0.00473175
0.00312533
0.00152001
-8.35158e-05
-0.00168475
-0.00328323
-0.0048785
-0.00647012
-0.00805803
-0.00964234
-0.0112176
-0.0127895
0.0180562
0.0162837
0.0148252
0.0134061
0.0119458
0.010468
0.00899075
0.00751545
0.00604015
0.00456473
0.00308994
0.00161645
0.000144807
-0.00132451
-0.00279102
-0.00425422
-0.00571371
-0.00716911
-0.0086195
-0.0100652
0.0182889
0.0166772
0.0153393
0.0140336
0.0126912
0.011333
0.00997473
0.00861766
0.00726021
0.00590233
0.00454475
0.00318812
0.00183299
0.000479859
-0.000870771
-0.00221841
-0.00356258
-0.00490282
-0.00623856
-0.00756954
0.0185405
0.017073
0.0158417
0.0146367
0.0133995
0.0121482
0.0108965
0.0096453
0.00839352
0.00714115
0.00588888
0.00463736
0.00338712
0.00213866
0.000892499
-0.000350871
-0.00159097
-0.00282732
-0.00405941
-0.00528687
0.0188009
0.0174628
0.0163259
0.0152104
0.0140669
0.0129111
0.0117545
0.0105981
0.00944099
0.00828322
0.00712544
0.00596829
0.00481228
0.00365792
0.00250572
0.00135618
0.00020977
-0.000933022
-0.00207171
-0.00320588
0.0190621
0.0178396
0.0167864
0.0157503
0.0146904
0.0136198
0.0125482
0.0114765
0.0104041
0.00933105
0.00825796
0.00718544
0.006114
0.00504414
0.00397635
0.00291112
0.00184893
0.000790261
-0.000264418
-0.00131468
0.019317
0.0181978
0.0172187
0.0162531
0.0152676
0.0142729
0.013277
0.012281
0.0112842
0.0102868
0.00928944
0.00829264
0.0072969
0.0063027
0.00531053
0.00432087
0.00333418
0.00235093
0.00137159
0.000396578
0.0195605
0.018533
0.0176193
0.0167163
0.0157967
0.0148694
0.0139409
0.0130121
0.0120826
0.0111527
0.0102228
0.00929352
0.00836532
0.00743867
0.00651402
0.00559185
0.00467261
0.00375675
0.00284472
0.00193696
0.0197881
0.0188417
0.0179856
0.0171377
0.0162764
0.0154087
0.0145398
0.0136705
0.0128007
0.0119305
0.0110605
0.0101912
0.00932299
0.00845633
0.00759168
0.0067295
0.00587022
0.00501427
0.0041621
0.00331412
0.0199965
0.0191212
0.0183156
0.017516
0.0167058
0.0158904
0.0150739
0.014257
0.0134397
0.0126222
0.011805
0.0109885
0.0101731
0.00935943
0.00854774
0.00773852
0.00693219
0.00612916
0.00532986
0.00453467
0.0201833
0.0193695
0.0186077
0.01785
0.0170842
0.0163142
0.0155433
0.014772
0.0140004
0.0132288
0.0124576
0.0116873
0.0109182
0.0101507
0.00938535
0.00862246
0.00786245
0.00710572
0.00635267
0.00560369
0.0203468
0.0195853
0.0188608
0.018139
0.0174111
0.01668
0.0159481
0.0152159
0.0144837
0.0137515
0.0130199
0.0122893
0.0115601
0.0108325
0.0101071
0.00938419
0.00866417
0.00794742
0.00723431
0.00652521
0.0204853
0.0197671
0.0190736
0.0183816
0.0176852
0.0169866
0.0162874
0.015588
0.0148888
0.0141898
0.0134916
0.0127945
0.0120989
0.0114051
0.0107135
0.0100244
0.00933828
0.00865541
0.00797616
0.00730087
0.0205987
0.0199149
0.0192461
0.0185779
0.0179069
0.0172345
0.0165616
0.0158889
0.0152164
0.0145445
0.0138735
0.0132038
0.0125357
0.0118695
0.0112056
0.0105443
0.00988601
0.00923095
0.00857951
0.00793198
0.0206841
0.0200255
0.0193746
0.0187241
0.0180719
0.017419
0.0167661
0.0161135
0.0154614
0.0148103
0.0141603
0.0135118
0.0128651
0.0122206
0.0115784
0.010939
0.0103026
0.00966956
0.00904012
0.00841458
0.0207443
0.0201019
0.0194626
0.0188235
0.0181838
0.0175441
0.0169046
0.0162658
0.0156279
0.0149912
0.0143558
0.0137222
0.0130905
0.0124611
0.0118343
0.0112102
0.0105892
0.00997159
0.00935758
0.00874744
0.0207708
0.0201334
0.019497
0.0188612
0.0182258
0.0175911
0.0169574
0.0163249
0.0156939
0.0150646
0.0144372
0.013812
0.0131892
0.0125691
0.0119518
0.0113377
0.0107268
0.0101195
0.00951587
0.00891621
0.166594
0.167936
0.171109
0.17551
0.181107
0.187677
0.195081
0.203129
0.211612
0.220263
0.228753
0.236669
0.243501
0.248632
0.251334
0.250777
0.246051
0.236227
0.220336
0.197183
0.159129
0.165284
0.166562
0.169571
0.173738
0.179003
0.18514
0.191986
0.199333
0.206944
0.21453
0.221735
0.228127
0.23319
0.236318
0.236824
0.233959
0.226946
0.215019
0.197482
0.173822
0.139458
0.163853
0.165066
0.167903
0.17182
0.176731
0.18241
0.188676
0.195306
0.202047
0.208594
0.214584
0.219586
0.223101
0.224565
0.223364
0.21886
0.210424
0.197489
0.179629
0.156926
0.125728
0.162288
0.163427
0.166073
0.169715
0.174243
0.179428
0.185072
0.19094
0.196762
0.202224
0.206957
0.210538
0.212493
0.212304
0.209435
0.203356
0.193587
0.179747
0.161612
0.139438
0.110542
0.160585
0.161643
0.164088
0.167438
0.171564
0.176234
0.181236
0.186322
0.191214
0.195591
0.199088
0.201297
0.201775
0.200063
0.195704
0.188282
0.177455
0.163003
0.144861
0.123372
0.0967559
0.158741
0.159714
0.161949
0.164996
0.168705
0.172846
0.177195
0.181497
0.185468
0.188788
0.191103
0.19203
0.191169
0.188122
0.18252
0.174053
0.162505
0.147788
0.129963
0.109412
0.0849819
0.156753
0.157637
0.159654
0.162386
0.165669
0.169271
0.172962
0.176482
0.17955
0.181851
0.183051
0.182798
0.18074
0.176548
0.169936
0.160694
0.14871
0.133999
0.116709
0.0972263
0.0748296
0.154619
0.15541
0.157203
0.159611
0.162459
0.165516
0.168549
0.171299
0.173489
0.17482
0.174979
0.173654
0.170546
0.16539
0.157982
0.148197
0.136009
0.121509
0.104898
0.0865505
0.0660544
0.152336
0.153032
0.154596
0.156674
0.159081
0.161593
0.163975
0.165974
0.167321
0.167738
0.166941
0.164659
0.160646
0.154703
0.146695
0.136572
0.124375
0.110245
0.094414
0.0772363
0.0585135
0.149906
0.150503
0.151835
0.153578
0.155545
0.157516
0.15926
0.160533
0.161082
0.16065
0.158989
0.155868
0.151095
0.14453
0.136103
0.125819
0.113772
0.100134
0.0851484
0.0691444
0.0520663
0.147327
0.147825
0.148924
0.150332
0.151861
0.153301
0.154426
0.155007
0.154809
0.153601
0.15117
0.147329
0.141936
0.134905
0.126216
0.115923
0.104151
0.0910917
0.076987
0.0621362
0.0465755
0.144603
0.145001
0.145867
0.146942
0.148041
0.148964
0.149497
0.149426
0.148537
0.14663
0.143527
0.139083
0.133203
0.125845
0.117033
0.106855
0.0954557
0.0830334
0.0698197
0.0560839
0.0419174
0.141737
0.142035
0.142671
0.143418
0.144099
0.144524
0.144497
0.143818
0.142302
0.139776
0.136098
0.131164
0.124918
0.11736
0.108543
0.0985786
0.0876242
0.0758739
0.0635435
0.0508725
0.0379822
0.138733
0.138933
0.139344
0.139771
0.140049
0.140002
0.139449
0.138214
0.136135
0.133071
0.128915
0.123597
0.117098
0.109448
0.100725
0.0910531
0.0805936
0.0695313
0.0580624
0.0463983
0.0346729
0.135599
0.135701
0.135895
0.136014
0.135909
0.135418
0.13438
0.132642
0.130068
0.126547
0.122004
0.116402
0.10975
0.102101
0.0935521
0.0842326
0.0743001
0.0639269
0.0532881
0.0425689
0.0319042
0.132342
0.132351
0.132335
0.132162
0.131695
0.130793
0.129314
0.127128
0.124127
0.120229
0.115386
0.10959
0.102873
0.0953057
0.086994
0.0780693
0.0686812
0.0589868
0.04914
0.0393021
0.0296014
0.128971
0.12889
0.128678
0.128228
0.127426
0.126148
0.124274
0.121699
0.118338
0.114138
0.109076
0.103167
0.0964607
0.0890405
0.0810155
0.0725145
0.0636762
0.0546419
0.045545
0.036525
0.0276996
0.125499
0.125333
0.124936
0.12423
0.123121
0.121504
0.119283
0.116376
0.112722
0.108291
0.103084
0.0971337
0.090503
0.0832819
0.0755801
0.0675197
0.0592276
0.0508285
0.042437
0.0341734
0.0261418
0.121937
0.121692
0.121124
0.120184
0.118798
0.116883
0.114364
0.11118
0.107296
0.102702
0.0974159
0.091486
0.0849843
0.0780034
0.07065
0.0630377
0.0552807
0.047488
0.0397566
0.0321903
0.0248785
0.118299
0.117981
0.11726
0.116109
0.114478
0.112305
0.109535
0.10613
0.102075
0.0973775
0.0920719
0.0862157
0.0798864
0.0731765
0.0661873
0.0590229
0.0517847
0.0445668
0.0374509
0.0305258
0.0238663
0.114602
0.114218
0.113359
0.112022
0.110179
0.107788
0.104814
0.101241
0.0970697
0.0923242
0.0870499
0.0813115
0.0751888
0.0687717
0.0621548
0.0554321
0.0486924
0.0420164
0.0354721
0.0291356
0.0230674
0.110862
0.11042
0.10944
0.107942
0.10592
0.103351
0.10022
0.0965265
0.0922891
0.0875437
0.0823442
0.0767597
0.0708696
0.0647596
0.0585166
0.0522244
0.0459604
0.0397928
0.0337779
0.0279806
0.0224483
0.107096
0.106603
0.105521
0.103888