# Force coefficients
# liftDir     : (0.000000e+00 1.000000e+00 0.000000e+00)
# dragDir     : (1.000000e+00 0.000000e+00 0.000000e+00)
# pitchAxis   : (0.000000e+00 0.000000e+00 1.000000e+00)
# magUInf     : 1.000000e+00
# lRef        : 1.000000e+00
# Aref        : 1.000000e-01
# CofR        : (0.000000e+00 0.000000e+00 0.000000e+00)
# Time        	Cm            	Cd            	Cl            	Cl(f)         	Cl(r)         
0.005         	3.207655e-05	3.449268e+02	-1.866092e-02	-9.298383e-03	-9.362536e-03
0.01          	1.757930e-05	1.867238e+01	1.396494e-02	7.000048e-03	6.964890e-03
0.015         	1.074680e-05	1.836863e+01	2.354188e-03	1.187841e-03	1.166347e-03
0.02          	7.139336e-06	1.521691e+01	1.061418e-03	5.378485e-04	5.235698e-04
0.025         	4.938120e-06	1.321181e+01	4.510624e-04	2.304693e-04	2.205931e-04
0.03          	3.553839e-06	1.173795e+01	2.180196e-04	1.125636e-04	1.054560e-04
0.035         	2.659955e-06	1.063016e+01	1.281723e-04	6.674612e-05	6.142620e-05
0.04          	2.094324e-06	9.776707e+00	9.298642e-05	4.858753e-05	4.439888e-05
0.045         	1.766691e-06	9.102967e+00	6.988905e-05	3.671122e-05	3.317784e-05
0.05          	1.537839e-06	8.558616e+00	6.144175e-05	3.225872e-05	2.918304e-05
0.055         	1.373402e-06	8.109334e+00	5.219056e-05	2.746868e-05	2.472188e-05
0.06          	1.251957e-06	7.731477e+00	4.886772e-05	2.568582e-05	2.318190e-05
0.065         	1.159831e-06	7.408470e+00	3.877787e-05	2.054877e-05	1.822911e-05
0.07          	1.088156e-06	7.128446e+00	3.318481e-05	1.768056e-05	1.550425e-05
0.075         	1.030849e-06	6.882734e+00	3.679263e-05	1.942716e-05	1.736546e-05
0.08          	9.840384e-07	6.664838e+00	3.756371e-05	1.976589e-05	1.779781e-05
0.085         	9.452491e-07	6.469902e+00	3.180231e-05	1.684640e-05	1.495591e-05
0.09          	9.126390e-07	6.294140e+00	2.859699e-05	1.521113e-05	1.338585e-05
0.095         	8.847314e-07	6.134626e+00	2.669027e-05	1.422987e-05	1.246040e-05
0.1           	8.605519e-07	5.989025e+00	2.957788e-05	1.564949e-05	1.392839e-05
0.105         	8.393942e-07	5.855376e+00	2.886319e-05	1.527099e-05	1.359220e-05
0.11          	8.208232e-07	5.732163e+00	2.840306e-05	1.502235e-05	1.338071e-05
0.115         	8.043973e-07	5.618097e+00	2.611807e-05	1.386343e-05	1.225464e-05
0.12          	7.897546e-07	5.512130e+00	2.320068e-05	1.239010e-05	1.081059e-05
0.125         	7.766620e-07	5.413402e+00	2.329302e-05	1.242317e-05	1.086985e-05
0.13          	7.648684e-07	5.321104e+00	2.347547e-05	1.250260e-05	1.097287e-05
0.135         	7.542119e-07	5.234559e+00	2.446526e-05	1.298684e-05	1.147842e-05
0.14          	7.446065e-07	5.153228e+00	2.121238e-05	1.135080e-05	9.861585e-06
0.145         	7.359039e-07	5.076636e+00	2.108135e-05	1.127658e-05	9.804770e-06
0.15          	7.279816e-07	5.004332e+00	2.319054e-05	1.232325e-05	1.086729e-05
0.155         	7.703025e-07	4.935985e+00	2.121704e-05	1.137882e-05	9.838219e-06
0.16          	8.015558e-07	4.871243e+00	1.873543e-05	1.016927e-05	8.566157e-06
0.165         	8.249071e-07	4.809817e+00	1.948075e-05	1.056528e-05	8.915467e-06
0.17          	8.425447e-07	4.751420e+00	1.752616e-05	9.605625e-06	7.920536e-06
0.175         	8.559191e-07	4.695838e+00	1.841908e-05	1.006546e-05	8.353622e-06
0.18          	8.786217e-07	4.642866e+00	1.774976e-05	9.753501e-06	7.996258e-06
0.185         	8.967390e-07	4.592318e+00	1.577251e-05	8.782997e-06	6.989518e-06
0.19          	9.112447e-07	4.544025e+00	1.682171e-05	9.322101e-06	7.499612e-06
0.195         	9.229322e-07	4.497836e+00	1.670075e-05	9.273308e-06	7.427444e-06
0.2           	9.324105e-07	4.453619e+00	1.500978e-05	8.437302e-06	6.572481e-06
0.205         	9.401005e-07	4.411251e+00	1.592898e-05	8.904592e-06	7.024391e-06
0.21          	9.463384e-07	4.370573e+00	1.466196e-05	8.277319e-06	6.384642e-06
0.215         	9.514170e-07	4.331510e+00	1.250285e-05	7.202843e-06	5.300009e-06
0.22          	9.554987e-07	4.293968e+00	1.307159e-05	7.491293e-06	5.580296e-06
0.225         	9.588577e-07	4.257864e+00	1.255664e-05	7.237175e-06	5.319460e-06
0.23          	9.615405e-07	4.223089e+00	1.571453e-05	8.818804e-06	6.895723e-06
0.235         	9.637714e-07	4.189594e+00	1.073830e-05	6.332923e-06	4.405380e-06
0.24          	9.656365e-07	4.157305e+00	1.307878e-05	7.505025e-06	5.573752e-06
0.245         	9.671633e-07	4.126151e+00	1.054331e-05	6.238821e-06	4.304494e-06
0.25          	9.684633e-07	4.096067e+00	1.214983e-05	7.043378e-06	5.106451e-06
0.255         	9.696179e-07	4.067037e+00	8.979590e-06	5.459413e-06	3.520177e-06
0.26          	9.706796e-07	4.038949e+00	8.754627e-06	5.347993e-06	3.406634e-06
0.265         	9.716421e-07	4.011786e+00	1.062897e-05	6.286126e-06	4.342842e-06
0.27          	9.725774e-07	3.985494e+00	8.448819e-06	5.196987e-06	3.251832e-06
0.275         	9.735381e-07	3.960040e+00	7.872079e-06	4.909578e-06	2.962502e-06
0.28          	9.744910e-07	3.935381e+00	7.190998e-06	4.569990e-06	2.621008e-06
0.285         	9.755451e-07	3.911483e+00	8.600913e-06	5.276001e-06	3.324911e-06
0.29          	9.766804e-07	3.888306e+00	8.714156e-06	5.333758e-06	3.380398e-06
0.295         	9.779771e-07	3.865829e+00	5.566427e-06	3.761190e-06	1.805236e-06
0.3           	9.794210e-07	3.844012e+00	6.627804e-06	4.293323e-06	2.334481e-06
0.305         	9.810354e-07	3.822828e+00	3.403199e-06	2.682635e-06	7.205643e-07
0.31          	9.827553e-07	3.802244e+00	8.743253e-06	5.354382e-06	3.388871e-06
0.315         	9.846765e-07	3.782246e+00	5.895305e-06	3.932329e-06	1.962976e-06
0.32          	9.868369e-07	3.762809e+00	5.233843e-06	3.603758e-06	1.630084e-06
0.325         	9.891958e-07	3.743900e+00	5.820057e-06	3.899224e-06	1.920833e-06
0.33          	9.917520e-07	3.725501e+00	4.713955e-06	3.348729e-06	1.365225e-06
0.335         	9.945547e-07	3.707598e+00	4.133054e-06	3.061082e-06	1.071972e-06
0.34          	9.975921e-07	3.690143e+00	3.718071e-06	2.856628e-06	8.614436e-07
0.345         	1.000874e-06	3.673161e+00	3.207596e-06	2.604672e-06	6.029234e-07
0.35          	1.004400e-06	3.656621e+00	3.671967e-06	2.840383e-06	8.315840e-07
0.355         	1.008173e-06	3.640494e+00	3.830286e-06	2.923316e-06	9.069701e-07
0.36          	1.012221e-06	3.624777e+00	3.109347e-06	2.566894e-06	5.424527e-07
0.365         	1.016553e-06	3.609450e+00	2.291186e-06	2.162146e-06	1.290403e-07
0.37          	1.021164e-06	3.594498e+00	2.439055e-06	2.240692e-06	1.983635e-07
0.375         	1.026042e-06	3.579886e+00	2.279801e-06	2.165942e-06	1.138584e-07
0.38          	1.031202e-06	3.565672e+00	1.312705e-06	1.687555e-06	-3.748497e-07
0.385         	1.036664e-06	3.551779e+00	1.581104e-06	1.827216e-06	-2.461123e-07
0.39          	1.042453e-06	3.538201e+00	-1.140027e-06	4.724391e-07	-1.612467e-06
0.395         	1.048491e-06	3.524954e+00	3.499202e-06	2.798092e-06	7.011099e-07
0.4           	1.054853e-06	3.512004e+00	7.394421e-07	1.424574e-06	-6.851317e-07
0.405         	1.061541e-06	3.499328e+00	3.171847e-06	2.647465e-06	5.243819e-07
0.41          	1.068569e-06	3.486980e+00	6.213169e-07	1.379227e-06	-7.579103e-07
0.415         	1.075953e-06	3.474878e+00	-7.024276e-08	1.040831e-06	-1.111074e-06
0.42          	1.083654e-06	3.463045e+00	-1.017789e-07	1.032764e-06	-1.134543e-06
0.425         	1.091674e-06	3.451472e+00	-1.797195e-07	1.001814e-06	-1.181533e-06
0.43          	1.100022e-06	3.440149e+00	-2.683733e-07	9.658357e-07	-1.234209e-06
0.435         	1.108703e-06	3.429070e+00	-2.038790e-07	1.006764e-06	-1.210643e-06
0.44          	1.117722e-06	3.418226e+00	-3.392395e-07	9.481025e-07	-1.287342e-06
0.445         	1.127084e-06	3.407610e+00	-2.714199e-07	9.913736e-07	-1.262793e-06
0.45          	1.136791e-06	3.397216e+00	-4.682511e-07	9.026655e-07	-1.370917e-06
0.455         	1.146847e-06	3.387038e+00	-2.484965e-07	1.022599e-06	-1.271095e-06
0.46          	1.157256e-06	3.377072e+00	-6.077217e-07	8.533956e-07	-1.461117e-06
0.465         	1.195238e-06	3.367293e+00	-1.065497e-06	6.624898e-07	-1.727986e-06
0.47          	1.229396e-06	3.357713e+00	-1.133439e-06	6.626763e-07	-1.796116e-06
0.475         	1.260653e-06	3.348296e+00	-1.391521e-06	5.648927e-07	-1.956413e-06
0.48          	1.289652e-06	3.339100e+00	-9.694680e-07	8.049184e-07	-1.774386e-06
0.485         	1.316865e-06	3.330082e+00	-1.071103e-06	7.813136e-07	-1.852417e-06
0.49          	1.342653e-06	3.321236e+00	-1.080049e-06	8.026284e-07	-1.882677e-06
0.495         	1.367286e-06	3.312558e+00	-1.200593e-06	7.669895e-07	-1.967583e-06
0.5           	1.390986e-06	3.304031e+00	-2.185131e-06	2.984207e-07	-2.483552e-06
0.505         	1.413907e-06	3.295708e+00	5.775160e-07	1.702665e-06	-1.125149e-06
0.51          	1.436196e-06	3.287516e+00	-1.432464e-06	7.199640e-07	-2.152428e-06
0.515         	1.458005e-06	3.279463e+00	-9.560489e-07	9.799810e-07	-1.936030e-06
0.52          	1.479416e-06	3.271587e+00	-1.061857e-06	9.484879e-07	-2.010345e-06
0.525         	1.500520e-06	3.263835e+00	-9.608339e-07	1.020103e-06	-1.980937e-06
0.53          	1.521389e-06	3.256218e+00	-1.284416e-06	8.791816e-07	-2.163597e-06
0.535         	1.542097e-06	3.248761e+00	-9.830340e-07	1.050579e-06	-2.033614e-06
0.54          	1.562718e-06	3.241419e+00	-9.300952e-07	1.097671e-06	-2.027766e-06
0.545         	1.583245e-06	3.234205e+00	-7.641460e-07	1.201172e-06	-1.965318e-06
0.55          	1.603743e-06	3.227122e+00	-5.092667e-08	1.578280e-06	-1.629206e-06
0.555         	1.624256e-06	3.220169e+00	-4.424924e-07	1.403009e-06	-1.845502e-06
0.56          	1.644820e-06	3.213323e+00	4.078757e-07	1.848758e-06	-1.440882e-06
0.565         	1.665464e-06	3.206602e+00	8.808041e-07	2.105866e-06	-1.225062e-06
0.57          	1.686251e-06	3.199991e+00	-3.449054e-06	-3.827617e-08	-3.410777e-06
0.575         	1.707163e-06	3.193487e+00	8.716406e-07	2.142983e-06	-1.271342e-06
0.58          	1.728184e-06	3.187101e+00	5.424477e-07	1.999408e-06	-1.456960e-06
0.585         	1.749402e-06	3.180822e+00	3.589428e-07	1.928873e-06	-1.569930e-06
0.59          	1.770822e-06	3.174641e+00	1.233997e-07	1.832522e-06	-1.709123e-06
0.595         	1.792015e-06	3.168556e+00	6.510894e-07	2.117559e-06	-1.466470e-06
0.6           	1.814813e-06	3.162580e+00	1.411466e-06	2.520546e-06	-1.109080e-06
0.605         	1.838650e-06	3.156700e+00	1.687387e-06	2.682343e-06	-9.949564e-07
0.61          	1.863185e-06	3.150913e+00	1.840850e-06	2.783610e-06	-9.427596e-07
0.615         	1.888202e-06	3.145219e+00	2.089728e-06	2.933067e-06	-8.433381e-07
0.62          	1.913570e-06	3.139616e+00	2.467000e-06	3.147070e-06	-6.800701e-07
0.625         	1.939210e-06	3.134102e+00	3.093965e-06	3.486193e-06	-3.922277e-07
0.63          	1.965084e-06	3.128669e+00	3.550303e-06	3.740236e-06	-1.899326e-07
0.635         	1.991171e-06	3.123327e+00	3.650007e-06	3.816175e-06	-1.661675e-07
0.64          	2.017465e-06	3.118077e+00	3.521168e-06	3.778049e-06	-2.568810e-07
0.645         	2.043972e-06	3.112873e+00	9.899835e-07	2.538964e-06	-1.548981e-06
0.65          	2.070676e-06	3.107768e+00	2.451468e-06	3.296410e-06	-8.449420e-07
0.655         	2.097548e-06	3.102697e+00	2.711210e-06	3.453153e-06	-7.419434e-07
0.66          	2.124610e-06	3.097749e+00	3.588395e-06	3.918807e-06	-3.304124e-07
0.665         	2.151874e-06	3.092875e+00	4.333293e-06	4.318521e-06	1.477229e-08
0.67          	2.179367e-06	3.088055e+00	4.563338e-06	4.461037e-06	1.023016e-07
0.675         	2.207099e-06	3.083314e+00	3.858652e-06	4.136425e-06	-2.777734e-07
0.68          	2.235043e-06	3.078638e+00	9.161999e-06	6.816043e-06	2.345957e-06
0.685         	2.263210e-06	3.074072e+00	9.227941e-06	6.877180e-06	2.350760e-06
0.69          	2.291733e-06	3.069532e+00	1.674116e-07	2.375439e-06	-2.208027e-06
0.695         	2.320526e-06	3.065037e+00	8.396806e-06	6.518929e-06	1.877877e-06
0.7           	2.349484e-06	3.060630e+00	7.830422e-06	6.264695e-06	1.565727e-06
0.705         	2.378742e-06	3.056284e+00	7.933967e-06	6.345725e-06	1.588241e-06
0.71          	2.408297e-06	3.051996e+00	6.259199e-06	5.537897e-06	7.213025e-07
0.715         	2.438127e-06	3.047764e+00	8.239860e-06	6.558057e-06	1.681803e-06
0.72          	2.468228e-06	3.043581e+00	6.834720e-06	5.885588e-06	9.491315e-07
0.725         	2.498515e-06	3.039477e+00	1.788151e-05	1.143927e-05	6.442241e-06
0.73          	2.529158e-06	3.035433e+00	8.752838e-06	6.905577e-06	1.847261e-06
0.735         	2.560212e-06	3.031438e+00	1.120370e-05	8.162061e-06	3.041637e-06
0.74          	2.591548e-06	3.027488e+00	8.442918e-06	6.813007e-06	1.629911e-06
0.745         	2.623187e-06	3.023587e+00	1.041329e-05	7.829833e-06	2.583459e-06
0.75          	2.655131e-06	3.019751e+00	1.307290e-05	9.191582e-06	3.881321e-06
0.755         	2.687347e-06	3.015951e+00	1.254518e-05	8.959938e-06	3.585244e-06
0.76          	2.719874e-06	3.012210e+00	1.326246e-05	9.351104e-06	3.911357e-06
0.765         	2.752683e-06	3.008508e+00	1.401814e-05	9.761754e-06	4.256388e-06
0.77          	2.785771e-06	3.004861e+00	1.502226e-05	1.029690e-05	4.725360e-06
0.775         	2.819129e-06	3.001264e+00	1.649137e-05	1.106481e-05	5.426555e-06
0.78          	2.852746e-06	2.997708e+00	1.436104e-05	1.003327e-05	4.327775e-06
0.785         	2.886791e-06	2.994194e+00	1.570042e-05	1.073700e-05	4.963421e-06
0.79          	2.921101e-06	2.990733e+00	1.729943e-05	1.157082e-05	5.728616e-06
0.795         	2.955680e-06	2.987320e+00	2.087723e-05	1.339429e-05	7.482934e-06
0.8           	2.990627e-06	2.983935e+00	1.295821e-05	9.469730e-06	3.488476e-06
0.805         	3.025885e-06	2.980585e+00	1.698425e-05	1.151801e-05	5.466240e-06
0.81          	3.061420e-06	2.977290e+00	1.934100e-05	1.273192e-05	6.609079e-06
0.815         	3.097211e-06	2.974038e+00	2.282550e-05	1.450996e-05	8.315537e-06
0.82          	3.133341e-06	2.970817e+00	1.677549e-05	1.152109e-05	5.254405e-06
0.825         	3.169808e-06	2.967629e+00	1.960531e-05	1.297246e-05	6.632849e-06
0.83          	3.206520e-06	2.964491e+00	2.177518e-05	1.409411e-05	7.681071e-06
0.835         	3.243522e-06	2.961389e+00	2.272159e-05	1.460432e-05	8.117274e-06
0.84          	3.280832e-06	2.958324e+00	2.335269e-05	1.495718e-05	8.395511e-06
0.845         	3.318450e-06	2.955295e+00	2.404169e-05	1.533930e-05	8.702395e-06
0.85          	3.356399e-06	2.952302e+00	2.448838e-05	1.560059e-05	8.887791e-06
0.855         	3.394728e-06	2.949352e+00	2.749870e-05	1.714408e-05	1.035462e-05
0.86          	3.433371e-06	2.946411e+00	2.297076e-05	1.491875e-05	8.052008e-06
0.865         	3.472271e-06	2.943522e+00	2.705411e-05	1.699932e-05	1.005478e-05
0.87          	3.511410e-06	2.940665e+00	2.789854e-05	1.746068e-05	1.043786e-05
0.875         	3.550834e-06	2.937841e+00	2.870113e-05	1.790140e-05	1.079973e-05
0.88          	3.590548e-06	2.935049e+00	2.949329e-05	1.833719e-05	1.115610e-05
0.885         	3.630551e-06	2.932290e+00	3.002871e-05	1.864491e-05	1.138380e-05
0.89          	3.670831e-06	2.929563e+00	3.271376e-05	2.002771e-05	1.268605e-05
0.895         	3.711445e-06	2.926859e+00	2.446865e-05	1.594577e-05	8.522881e-06
0.9           	3.752350e-06	2.924175e+00	3.114780e-05	1.932625e-05	1.182155e-05
0.905         	3.793424e-06	2.921527e+00	3.281077e-05	2.019881e-05	1.261196e-05
0.91          	3.834850e-06	2.918901e+00	2.199117e-05	1.483044e-05	7.160736e-06
0.915         	3.876499e-06	2.916302e+00	3.903499e-05	2.339399e-05	1.564099e-05
0.92          	3.918262e-06	2.913747e+00	3.817883e-05	2.300768e-05	1.517115e-05
0.925         	3.960418e-06	2.911218e+00	3.734728e-05	2.263406e-05	1.471322e-05
0.93          	4.002906e-06	2.908713e+00	3.652995e-05	2.226788e-05	1.426207e-05
0.935         	4.045688e-06	2.906235e+00	3.660439e-05	2.234788e-05	1.425651e-05
0.94          	4.088749e-06	2.903781e+00	3.543042e-05	2.180396e-05	1.362646e-05
0.945         	4.132059e-06	2.901342e+00	3.806287e-05	2.316349e-05	1.489937e-05
0.95          	4.175533e-06	2.898962e+00	4.955640e-05	2.895373e-05	2.060267e-05
0.955         	4.219225e-06	2.896606e+00	5.456740e-05	3.150292e-05	2.306447e-05
0.96          	4.263426e-06	2.894264e+00	3.633995e-05	2.243340e-05	1.390655e-05
0.965         	4.308044e-06	2.891930e+00	4.307574e-05	2.584591e-05	1.722983e-05
0.97          	4.352776e-06	2.889623e+00	4.388303e-05	2.629429e-05	1.758874e-05
0.975         	4.397790e-06	2.887344e+00	3.958055e-05	2.418806e-05	1.539248e-05
0.98          	4.443030e-06	2.885077e+00	4.458302e-05	2.673454e-05	1.784848e-05
0.985         	4.488486e-06	2.882828e+00	4.069016e-05	2.483356e-05	1.585659e-05
0.99          	4.534158e-06	2.880614e+00	4.935811e-05	2.921321e-05	2.014490e-05
0.995         	4.579981e-06	2.878432e+00	5.502947e-05	3.209471e-05	2.293475e-05
1             	4.626175e-06	2.876253e+00	4.487370e-05	2.706302e-05	1.781067e-05
1.005         	4.672688e-06	2.874105e+00	5.082935e-05	3.008736e-05	2.074199e-05
1.01          	4.719356e-06	2.871980e+00	5.175710e-05	3.059791e-05	2.115919e-05
1.015         	4.766286e-06	2.869872e+00	5.249457e-05	3.101357e-05	2.148100e-05
1.02          	4.813469e-06	2.867786e+00	5.339457e-05	3.151076e-05	2.188382e-05
1.025         	4.860930e-06	2.865717e+00	5.046044e-05	3.009115e-05	2.036929e-05
1.03          	4.908550e-06	2.863673e+00	6.144914e-05	3.563312e-05	2.581602e-05
1.035         	4.956409e-06	2.861647e+00	5.488660e-05	3.239971e-05	2.248689e-05
1.04          	5.004619e-06	2.859638e+00	5.586327e-05	3.293626e-05	2.292702e-05
1.045         	5.053042e-06	2.857645e+00	5.577608e-05	3.294108e-05	2.283500e-05
1.05          	5.101660e-06	2.855669e+00	5.886713e-05	3.453522e-05	2.433190e-05
1.055         	5.150433e-06	2.853725e+00	6.428922e-05	3.729504e-05	2.699418e-05
1.06          	5.199516e-06	2.851791e+00	5.832660e-05	3.436282e-05	2.396378e-05
1.065         	5.248892e-06	2.849872e+00	6.082342e-05	3.566060e-05	2.516282e-05
1.07          	5.298441e-06	2.847970e+00	6.287228e-05	3.673458e-05	2.613770e-05
1.075         	5.348240e-06	2.846083e+00	5.997274e-05	3.533461e-05	2.463813e-05
1.08          	5.398135e-06	2.844219e+00	7.156059e-05	4.117843e-05	3.038216e-05
1.085         	5.448255e-06	2.842382e+00	6.894439e-05	3.992045e-05	2.902394e-05
1.09          	5.498743e-06	2.840544e+00	6.628813e-05	3.864281e-05	2.764532e-05
1.095         	5.549469e-06	2.838725e+00	6.850916e-05	3.980405e-05	2.870511e-05
1.1           	5.600378e-06	2.836925e+00	7.011005e-05	4.065540e-05	2.945465e-05
1.105         	5.651494e-06	2.835141e+00	7.127987e-05	4.129143e-05	2.998844e-05
1.11          	5.702828e-06	2.833373e+00	7.201410e-05	4.170988e-05	3.030422e-05
1.115         	5.754404e-06	2.831623e+00	6.985970e-05	4.068426e-05	2.917545e-05
1.12          	5.806160e-06	2.829878e+00	7.426868e-05	4.294050e-05	3.132818e-05
1.125         	5.858069e-06	2.828155e+00	7.761070e-05	4.466342e-05	3.294728e-05
1.13          	5.910179e-06	2.826459e+00	8.319433e-05	4.750734e-05	3.568699e-05
1.135         	5.962667e-06	2.824757e+00	6.698650e-05	3.945592e-05	2.753058e-05
1.14          	6.015399e-06	2.823074e+00	7.590437e-05	4.396759e-05	3.193679e-05
1.145         	6.068191e-06	2.821391e+00	7.162955e-05	4.188296e-05	2.974658e-05
1.15          	6.121120e-06	2.819738e+00	8.082828e-05	4.653526e-05	3.429302e-05
1.155         	6.174154e-06	2.818102e+00	8.163316e-05	4.699073e-05	3.464242e-05
1.16          	6.227423e-06	2.816479e+00	8.279108e-05	4.762296e-05	3.516812e-05
1.165         	6.280902e-06	2.814869e+00	8.453305e-05	4.854743e-05	3.598562e-05
1.17          	6.334580e-06	2.813273e+00	8.659346e-05	4.963131e-05	3.696215e-05
1.175         	6.388484e-06	2.811693e+00	8.406362e-05	4.842029e-05	3.564333e-05
1.18          	6.442614e-06	2.810112e+00	8.387137e-05	4.837830e-05	3.549307e-05
1.185         	6.496957e-06	2.808547e+00	7.764746e-05	4.532069e-05	3.232677e-05
1.19          	6.551412e-06	2.806993e+00	9.136340e-05	5.223311e-05	3.913029e-05
1.195         	6.605918e-06	2.805462e+00	9.353860e-05	5.337522e-05	4.016338e-05
1.2           	6.660699e-06	2.803939e+00	9.267387e-05	5.299763e-05	3.967624e-05
1.205         	6.715701e-06	2.802432e+00	9.540087e-05	5.441613e-05	4.098473e-05
1.21          	6.770929e-06	2.800938e+00	9.215605e-05	5.284895e-05	3.930709e-05
1.215         	6.826348e-06	2.799446e+00	9.428248e-05	5.396759e-05	4.031489e-05
1.22          	6.881891e-06	2.797968e+00	9.583376e-05	5.479877e-05	4.103499e-05
1.225         	6.937588e-06	2.796504e+00	9.759339e-05	5.573428e-05	4.185911e-05
1.23          	6.993458e-06	2.795052e+00	9.800214e-05	5.599453e-05	4.200761e-05
1.235         	7.068581e-06	2.793598e+00	9.886284e-05	5.650000e-05	4.236284e-05
1.24          	7.141465e-06	2.792168e+00	9.963854e-05	5.696074e-05	4.267781e-05
1.245         	7.212586e-06	2.790751e+00	1.008360e-04	5.763057e-05	4.320540e-05
1.25          	7.282288e-06	2.789344e+00	1.020965e-04	5.833052e-05	4.376594e-05
1.255         	7.350832e-06	2.787948e+00	1.033568e-04	5.902924e-05	4.432758e-05
1.26          	7.418419e-06	2.786561e+00	1.046092e-04	5.972302e-05	4.488618e-05
1.265         	7.485205e-06	2.785185e+00	1.058159e-04	6.039314e-05	4.542273e-05
1.27          	7.551313e-06	2.783820e+00	1.070344e-04	6.106849e-05	4.596587e-05
1.275         	7.616840e-06	2.782466e+00	1.091737e-04	6.220369e-05	4.697001e-05
1.28          	7.681861e-06	2.781124e+00	1.124799e-04	6.392182e-05	4.855809e-05
1.285         	7.746480e-06	2.779789e+00	1.098666e-04	6.267980e-05	4.718684e-05
1.29          	7.810769e-06	2.778459e+00	1.122749e-04	6.394823e-05	4.832669e-05
1.295         	7.874791e-06	2.777137e+00	1.008753e-04	5.831242e-05	4.256284e-05
1.3           	7.938552e-06	2.775823e+00	1.125308e-04	6.420396e-05	4.832686e-05
1.305         	8.001834e-06	2.774520e+00	1.151478e-04	6.557575e-05	4.957208e-05
1.31          	8.064902e-06	2.773230e+00	1.162927e-04	6.621123e-05	5.008143e-05
1.315         	8.127827e-06	2.771950e+00	1.162393e-04	6.624746e-05	4.999181e-05
1.32          	8.190811e-06	2.770670e+00	9.663540e-05	5.650851e-05	4.012689e-05
1.325         	8.253657e-06	2.769394e+00	1.246864e-04	7.059684e-05	5.408952e-05
1.33          	8.316058e-06	2.768143e+00	1.239167e-04	7.027441e-05	5.364230e-05
1.335         	8.378574e-06	2.766900e+00	1.243123e-04	7.053474e-05	5.377759e-05
1.34          	8.441091e-06	2.765666e+00	1.240184e-04	7.045031e-05	5.356812e-05
1.345         	8.503587e-06	2.764437e+00	1.252615e-04	7.113435e-05	5.412717e-05
1.35          	8.566041e-06	2.763219e+00	1.259940e-04	7.156304e-05	5.443096e-05
1.355         	8.628468e-06	2.762008e+00	1.265650e-04	7.191099e-05	5.465405e-05
1.36          	8.690872e-06	2.760807e+00	1.275564e-04	7.246908e-05	5.508734e-05
1.365         	8.753259e-06	2.759611e+00	1.282703e-04	7.288840e-05	5.538188e-05
1.37          	8.815635e-06	2.758426e+00	1.295687e-04	7.359997e-05	5.596870e-05
1.375         	8.878018e-06	2.757245e+00	1.302756e-04	7.401582e-05	5.625978e-05
1.38          	8.940400e-06	2.756073e+00	1.302493e-04	7.406504e-05	5.618424e-05
1.385         	9.002815e-06	2.754907e+00	1.278256e-04	7.291559e-05	5.490996e-05
1.39          	9.065165e-06	2.753751e+00	1.423222e-04	8.022627e-05	6.209594e-05
1.395         	9.127384e-06	2.752618e+00	1.495311e-04	8.389293e-05	6.563816e-05
1.4           	9.189800e-06	2.751488e+00	1.398695e-04	7.912457e-05	6.074498e-05
1.405         	9.252382e-06	2.750359e+00	1.570369e-04	8.777081e-05	6.926605e-05
1.41          	9.315085e-06	2.749241e+00	1.265673e-04	7.259874e-05	5.396857e-05
1.415         	9.378182e-06	2.748113e+00	1.348148e-04	7.678556e-05	5.802920e-05
1.42          	9.440992e-06	2.746996e+00	1.409619e-04	7.992194e-05	6.103995e-05
1.425         	9.503744e-06	2.745891e+00	1.429156e-04	8.096154e-05	6.195406e-05
1.43          	9.566597e-06	2.744791e+00	1.351679e-04	7.715056e-05	5.801736e-05
1.435         	9.629499e-06	2.743693e+00	1.457937e-04	8.252633e-05	6.326733e-05
1.44          	9.692298e-06	2.742612e+00	1.488043e-04	8.409445e-05	6.470985e-05
1.445         	9.755192e-06	2.741539e+00	1.496678e-04	8.458908e-05	6.507870e-05
1.45          	9.818194e-06	2.740472e+00	1.510059e-04	8.532112e-05	6.568473e-05
1.455         	9.881290e-06	2.739412e+00	1.520547e-04	8.590866e-05	6.614608e-05
1.46          	9.944463e-06	2.738360e+00	1.550217e-04	8.745533e-05	6.756640e-05
1.465         	1.000774e-05	2.737310e+00	1.501136e-04	8.506456e-05	6.504907e-05
1.47          	1.007113e-05	2.736265e+00	1.529424e-04	8.654235e-05	6.640009e-05
1.475         	1.013454e-05	2.735231e+00	1.548963e-04	8.758268e-05	6.731359e-05
1.48          	1.019801e-05	2.734201e+00	1.565151e-04	8.845554e-05	6.805952e-05
1.485         	1.026156e-05	2.733179e+00	1.579000e-04	8.921158e-05	6.868846e-05
1.49          	1.032518e-05	2.732164e+00	1.592636e-04	8.995696e-05	6.930660e-05
1.495         	1.038888e-05	2.731155e+00	1.613237e-04	9.105074e-05	7.027299e-05
1.5           	1.045262e-05	2.730155e+00	1.679558e-04	9.443052e-05	7.352528e-05
1.505         	1.051656e-05	2.729155e+00	1.506319e-04	8.583250e-05	6.479938e-05
1.51          	1.058067e-05	2.728159e+00	1.644744e-04	9.281788e-05	7.165655e-05
1.515         	1.064459e-05	2.727175e+00	1.656211e-04	9.345515e-05	7.216598e-05
1.52          	1.070864e-05	2.726196e+00	1.666553e-04	9.403629e-05	7.261902e-05
1.525         	1.077279e-05	2.725223e+00	1.677848e-04	9.466520e-05	7.311962e-05
1.53          	1.083707e-05	2.724258e+00	1.684429e-04	9.505852e-05	7.338437e-05
1.535         	1.090153e-05	2.723291e+00	1.694281e-04	9.561558e-05	7.381253e-05
1.54          	1.096608e-05	2.722335e+00	1.708559e-04	9.639404e-05	7.446188e-05
1.545         	1.103067e-05	2.721385e+00	1.719177e-04	9.698950e-05	7.492817e-05
1.55          	1.109533e-05	2.720441e+00	1.726730e-04	9.743183e-05	7.524118e-05
1.555         	1.116006e-05	2.719502e+00	1.738045e-04	9.806232e-05	7.574221e-05
1.56          	1.122485e-05	2.718568e+00	1.750216e-04	9.873563e-05	7.628593e-05
1.565         	1.128971e-05	2.717640e+00	1.762251e-04	9.940224e-05	7.682282e-05
1.57          	1.135465e-05	2.716717e+00	1.774012e-04	1.000552e-04	7.734593e-05
1.575         	1.141966e-05	2.715799e+00	1.785274e-04	1.006834e-04	7.784404e-05
1.58          	1.148475e-05	2.714887e+00	1.795460e-04	1.012578e-04	7.828828e-05
1.585         	1.154993e-05	2.713979e+00	1.791885e-04	1.011442e-04	7.804430e-05
1.59          	1.161712e-05	2.713076e+00	1.840149e-04	1.036246e-04	8.039032e-05
1.595         	1.168440e-05	2.712179e+00	1.858218e-04	1.045953e-04	8.122649e-05
1.6           	1.175177e-05	2.711289e+00	1.841321e-04	1.038178e-04	8.031426e-05
1.605         	1.181918e-05	2.710403e+00	1.855311e-04	1.045847e-04	8.094637e-05
1.61          	1.188657e-05	2.709522e+00	1.870393e-04	1.054062e-04	8.163308e-05
1.615         	1.195392e-05	2.708647e+00	1.877513e-04	1.058296e-04	8.192172e-05
1.62          	1.202126e-05	2.707774e+00	1.891862e-04	1.066144e-04	8.257184e-05
1.625         	1.208857e-05	2.706909e+00	1.905778e-04	1.073775e-04	8.320032e-05
1.63          	1.215586e-05	2.706048e+00	1.917779e-04	1.080448e-04	8.373306e-05
1.635         	1.222316e-05	2.705193e+00	1.937705e-04	1.091084e-04	8.466211e-05
1.64          	1.229045e-05	2.704344e+00	1.947780e-04	1.096795e-04	8.509856e-05
1.645         	1.235775e-05	2.703498e+00	1.971902e-04	1.109528e-04	8.623733e-05
1.65          	1.242508e-05	2.702663e+00	1.942680e-04	1.095591e-04	8.470891e-05
1.655         	1.249247e-05	2.701841e+00	1.944513e-04	1.097181e-04	8.473318e-05
1.66          	1.255989e-05	2.700966e+00	1.904763e-04	1.077981e-04	8.267827e-05
1.665         	1.262725e-05	2.700137e+00	2.015352e-04	1.133949e-04	8.814036e-05
1.67          	1.269455e-05	2.699311e+00	1.996310e-04	1.125100e-04	8.712093e-05
1.675         	1.276188e-05	2.698503e+00	2.052409e-04	1.153823e-04	8.985858e-05
1.68          	1.282917e-05	2.697696e+00	2.133926e-04	1.195255e-04	9.386710e-05
1.685         	1.289666e-05	2.696896e+00	2.054646e-04	1.156290e-04	8.983563e-05
1.69          	1.296438e-05	2.696115e+00	2.001421e-04	1.130355e-04	8.710669e-05
1.695         	1.303216e-05	2.695263e+00	2.007196e-04	1.133920e-04	8.732764e-05
1.7           	1.309980e-05	2.694467e+00	2.064937e-04	1.163466e-04	9.014703e-05
1.705         	1.316741e-05	2.693676e+00	2.086826e-04	1.175087e-04	9.117389e-05
1.71          	1.323510e-05	2.692887e+00	2.055214e-04	1.159958e-04	8.952561e-05
1.715         	1.330289e-05	2.692096e+00	2.032068e-04	1.149063e-04	8.830048e-05
1.72          	1.337063e-05	2.691315e+00	2.153044e-04	1.210228e-04	9.428155e-05
1.725         	1.343831e-05	2.690542e+00	2.156056e-04	1.212411e-04	9.436451e-05
1.73          	1.350612e-05	2.689773e+00	2.161817e-04	1.215970e-04	9.458473e-05
1.735         	1.357404e-05	2.689008e+00	2.173485e-04	1.222483e-04	9.510019e-05
1.74          	1.364203e-05	2.688248e+00	2.191923e-04	1.232382e-04	9.595412e-05
1.745         	1.371015e-05	2.687488e+00	2.098864e-04	1.186534e-04	9.123307e-05
1.75          	1.377835e-05	2.686729e+00	2.172449e-04	1.224008e-04	9.484409e-05
1.755         	1.384647e-05	2.685979e+00	2.198603e-04	1.237766e-04	9.608367e-05
1.76          	1.391471e-05	2.685231e+00	2.091150e-04	1.184722e-04	9.064279e-05
1.765         	1.398300e-05	2.684493e+00	2.230102e-04	1.254881e-04	9.752209e-05
1.77          	1.405117e-05	2.683766e+00	2.242259e-04	1.261641e-04	9.806180e-05
1.775         	1.411948e-05	2.682980e+00	2.236946e-04	1.259668e-04	9.772781e-05
1.78          	1.418784e-05	2.682254e+00	2.242726e-04	1.263241e-04	9.794845e-05
1.785         	1.425621e-05	2.681530e+00	2.310443e-04	1.297784e-04	1.012659e-04
1.79          	1.432466e-05	2.680813e+00	2.319116e-04	1.302805e-04	1.016311e-04
1.795         	1.439332e-05	2.680096e+00	2.276206e-04	1.282036e-04	9.941699e-05
1.8           	1.446210e-05	2.679381e+00	2.288789e-04	1.289016e-04	9.997737e-05
1.805         	1.453089e-05	2.678668e+00	2.301282e-04	1.295950e-04	1.005332e-04
1.81          	1.459972e-05	2.677959e+00	2.312650e-04	1.302322e-04	1.010328e-04
1.815         	1.466860e-05	2.677254e+00	2.325209e-04	1.309291e-04	1.015919e-04
1.82          	1.473753e-05	2.676552e+00	2.337177e-04	1.315964e-04	1.021213e-04
1.825         	1.480651e-05	2.675854e+00	2.347613e-04	1.321872e-04	1.025741e-04
1.83          	1.487556e-05	2.675158e+00	2.358547e-04	1.328029e-04	1.030518e-04
1.835         	1.494465e-05	2.674460e+00	2.369365e-04	1.334129e-04	1.035236e-04
1.84          	1.501381e-05	2.673762e+00	2.380862e-04	1.340569e-04	1.040293e-04