/*--------------------------------*- C++ -*----------------------------------*\
  =========                 |
  \\      /  F ield         | OpenFOAM: The Open Source CFD Toolbox
   \\    /   O peration     | Website:  https://openfoam.org
    \\  /    A nd           | Version:  7
     \\/     M anipulation  |
\*---------------------------------------------------------------------------*/
FoamFile
{
    version     2.0;
    format      ascii;
    class       volScalarField;
    location    "20";
    object      p;
}
// * * * * * * * * * * * * * * * * * * * * * * * * * * * * * * * * * * * * * //

dimensions      [0 2 -2 0 0 0 0];

internalField   nonuniform List<scalar> 
12772
(
-0.282978
-0.288521
-0.290465
-0.290919
-0.290109
-0.288107
-0.285076
-0.281173
-0.276514
-0.271026
-0.283718
-0.289139
-0.291004
-0.291385
-0.290509
-0.288446
-0.285358
-0.281409
-0.276705
-0.271096
-0.285193
-0.29037
-0.292077
-0.292315
-0.291304
-0.28912
-0.285918
-0.281875
-0.277084
-0.271228
-0.287394
-0.292208
-0.293679
-0.293701
-0.292489
-0.29012
-0.286747
-0.282561
-0.27764
-0.271403
-0.290303
-0.294639
-0.295797
-0.295531
-0.294052
-0.291437
-0.287833
-0.283454
-0.278362
-0.271583
-0.293902
-0.297648
-0.298416
-0.297793
-0.295979
-0.293056
-0.289161
-0.284537
-0.279244
-0.271705
-0.298169
-0.301216
-0.301522
-0.30047
-0.298256
-0.294961
-0.290714
-0.285792
-0.28028
-0.271832
-0.303079
-0.305325
-0.305095
-0.303547
-0.300865
-0.297137
-0.292476
-0.287194
-0.281301
-0.272013
-0.308607
-0.309951
-0.309117
-0.307004
-0.303791
-0.299566
-0.29443
-0.288732
-0.282418
-0.272045
-0.314725
-0.315075
-0.313566
-0.310825
-0.307017
-0.302236
-0.296561
-0.290388
-0.283607
-0.271899
-0.32141
-0.320673
-0.318424
-0.314993
-0.31053
-0.305135
-0.298862
-0.292148
-0.284839
-0.271556
-0.328635
-0.32672
-0.323673
-0.319491
-0.314318
-0.308255
-0.301326
-0.294009
-0.286101
-0.270984
-0.336374
-0.333198
-0.329292
-0.324305
-0.318372
-0.311594
-0.303958
-0.295976
-0.287396
-0.270108
-0.344602
-0.340082
-0.335261
-0.329421
-0.322685
-0.315153
-0.306769
-0.298069
-0.288733
-0.268973
-0.353291
-0.347348
-0.341564
-0.334828
-0.327252
-0.318938
-0.30978
-0.300321
-0.290139
-0.267566
-0.362411
-0.354971
-0.348179
-0.340513
-0.332073
-0.32296
-0.313021
-0.302788
-0.291676
-0.265996
-0.371927
-0.362924
-0.355087
-0.346463
-0.337144
-0.327233
-0.316529
-0.30554
-0.293388
-0.264367
-0.381801
-0.371174
-0.362263
-0.352666
-0.342463
-0.331771
-0.320361
-0.308663
-0.29517
-0.262479
-0.391986
-0.379689
-0.369683
-0.359103
-0.348026
-0.336595
-0.324607
-0.312351
-0.297211
-0.26127
-0.40243
-0.388428
-0.377315
-0.365751
-0.353815
-0.34171
-0.329341
-0.316925
-0.301656
-0.270223
-0.413077
-0.397349
-0.385124
-0.372578
-0.359798
-0.347059
-0.334432
-0.322227
-0.310539
-0.30852
-0.423864
-0.406402
-0.39307
-0.379548
-0.365923
-0.352534
-0.33957
-0.327318
-0.316506
-0.321152
-0.434725
-0.415536
-0.401108
-0.386619
-0.372146
-0.358065
-0.344609
-0.331947
-0.320527
-0.325447
-0.44559
-0.424695
-0.409191
-0.393749
-0.378426
-0.363615
-0.349539
-0.336253
-0.323924
-0.327624
-0.456387
-0.433817
-0.417265
-0.400891
-0.384721
-0.369145
-0.354344
-0.340268
-0.326858
-0.328298
-0.467035
-0.442832
-0.42527
-0.407991
-0.390977
-0.374602
-0.35898
-0.343952
-0.329275
-0.327838
-0.47745
-0.451664
-0.433135
-0.414982
-0.397129
-0.37992
-0.363385
-0.34726
-0.331165
-0.326569
-0.487534
-0.460229
-0.440783
-0.421788
-0.403101
-0.385021
-0.367487
-0.35014
-0.332519
-0.32466
-0.497181
-0.468429
-0.448121
-0.428321
-0.408803
-0.389816
-0.371201
-0.352527
-0.333304
-0.32219
-0.506274
-0.476159
-0.45505
-0.434482
-0.414137
-0.394203
-0.374434
-0.354347
-0.333469
-0.319183
-0.514683
-0.4833
-0.461457
-0.440161
-0.41899
-0.398072
-0.377082
-0.355512
-0.332954
-0.315624
-0.522265
-0.489727
-0.467219
-0.445235
-0.42324
-0.401303
-0.379033
-0.355931
-0.331683
-0.311474
-0.528867
-0.4953
-0.472205
-0.449574
-0.426757
-0.403766
-0.380169
-0.355501
-0.329576
-0.306674
-0.534329
-0.499874
-0.476273
-0.453038
-0.429401
-0.405329
-0.380367
-0.354118
-0.326546
-0.301153
-0.538479
-0.503296
-0.479274
-0.45548
-0.431028
-0.405851
-0.379501
-0.351675
-0.322506
-0.294832
-0.541144
-0.505407
-0.481056
-0.456748
-0.43149
-0.405193
-0.377443
-0.348065
-0.317367
-0.28763
-0.542147
-0.506046
-0.481459
-0.456686
-0.430634
-0.403214
-0.374072
-0.343186
-0.311047
-0.279469
-0.541312
-0.50505
-0.480326
-0.45514
-0.428313
-0.399776
-0.369267
-0.33694
-0.303468
-0.270274
-0.538464
-0.502258
-0.477499
-0.451954
-0.424379
-0.394747
-0.362917
-0.329238
-0.294562
-0.25998
-0.533439
-0.497513
-0.472825
-0.44698
-0.418694
-0.388005
-0.354921
-0.320003
-0.284272
-0.248533
-0.526078
-0.490668
-0.466156
-0.440077
-0.411127
-0.379438
-0.34519
-0.309169
-0.27255
-0.235887
-0.516238
-0.481583
-0.457358
-0.431115
-0.401561
-0.368948
-0.333651
-0.296685
-0.259363
-0.222012
-0.503791
-0.470133
-0.446305
-0.419976
-0.389893
-0.356453
-0.320243
-0.282513
-0.244691
-0.206887
-0.488627
-0.456209
-0.432891
-0.40656
-0.37604
-0.34189
-0.304928
-0.266633
-0.228527
-0.190504
-0.470659
-0.439721
-0.417025
-0.390786
-0.359934
-0.325214
-0.287681
-0.249039
-0.210878
-0.17287
-0.449824
-0.420601
-0.398641
-0.372595
-0.341534
-0.306402
-0.268501
-0.229742
-0.191767
-0.154008
-0.426084
-0.398803
-0.377694
-0.351952
-0.320819
-0.285455
-0.247402
-0.208769
-0.171225
-0.133943
-0.399429
-0.374308
-0.354164
-0.328845
-0.297795
-0.262394
-0.224422
-0.186163
-0.149292
-0.112636
-0.369882
-0.347125
-0.328058
-0.30329
-0.272491
-0.237265
-0.199618
-0.161997
-0.126047
-0.0900132
-0.337491
-0.317289
-0.299413
-0.275331
-0.244963
-0.210135
-0.173068
-0.136353
-0.101615
-0.0664579
-0.302338
-0.284867
-0.268292
-0.245039
-0.215293
-0.181096
-0.144866
-0.109299
-0.0758386
-0.0422716
-0.264536
-0.249953
-0.234788
-0.212512
-0.183587
-0.15026
-0.115127
-0.0809642
-0.0490104
-0.0171655
-0.224226
-0.212671
-0.199023
-0.177875
-0.149976
-0.117761
-0.0839816
-0.0514617
-0.0212534
0.0087515
-0.181581
-0.173172
-0.161146
-0.14128
-0.11461
-0.0837538
-0.0515795
-0.020929
0.00732567
0.0353239
-0.136798
-0.131636
-0.121332
-0.102891
-0.0776714
-0.0484104
-0.0180841
0.0104817
0.0365955
0.0623899
-0.090085
-0.0882798
-0.0797694
-0.0629237
-0.039351
-0.0119177
0.0163257
0.0426082
0.0664158
0.0897613
-0.0416922
-0.0433327
-0.0366951
-0.0215862
0.000141374
0.0255228
0.0514598
0.0752883
0.0966546
0.117142
0.00805858
0.00299046
0.00765336
0.0208862
0.0405799
0.063698
0.0871211
0.108369
0.127161
0.143996
0.058915
0.0503953
0.0530151
0.0642423
0.0817276
0.102387
0.123112
0.141693
0.157631
0.169587
0.110574
0.098594
0.0991149
0.10822
0.123339
0.141367
0.15925
0.175064
0.187482
0.193161
0.162714
0.147288
0.145666
0.152545
0.165163
0.180422
0.195366
0.208275
0.216136
0.215874
0.215005
0.196169
0.192369
0.196939
0.206942
0.219327
0.231259
0.241234
0.246129
0.244248
0.267108
0.244916
0.238922
0.241113
0.248412
0.25784
0.266688
0.273613
0.27577
0.272446
0.318683
0.293209
0.285015
0.284781
0.289309
0.295718
0.301432
0.305226
0.304553
0.299475
0.369387
0.340722
0.33034
0.327654
0.329371
0.332727
0.335285
0.335927
0.332406
0.325327
0.418882
0.387134
0.374591
0.36945
0.368345
0.368643
0.36805
0.365558
0.359219
0.34999
0.466833
0.432127
0.417467
0.409891
0.405982
0.403248
0.399542
0.393965
0.384862
0.373416
0.512916
0.475391
0.458675
0.448709
0.442042
0.436335
0.429587
0.421004
0.409218
0.395538
0.556815
0.516626
0.497932
0.485644
0.476297
0.467707
0.458017
0.446541
0.432177
0.416293
0.598229
0.555544
0.534966
0.520451
0.50853
0.497177
0.484676
0.470448
0.453637
0.435614
0.636873
0.591874
0.569523
0.552896
0.538536
0.524569
0.509419
0.492604
0.473501
0.453437
0.67248
0.625359
0.601362
0.582763
0.566123
0.549722
0.532107
0.512897
0.491674
0.469697
0.704803
0.655763
0.630261
0.609851
0.591118
0.572484
0.552617
0.531222
0.508071
0.484332
0.733615
0.682872
0.65602
0.633977
0.61336
0.592719
0.570832
0.547483
0.522612
0.497284
0.758715
0.706491
0.678456
0.65498
0.632708
0.610307
0.586652
0.561597
0.535225
0.508498
0.779927
0.726454
0.697414
0.672718
0.649037
0.625142
0.599986
0.573486
0.545845
0.517926
0.7971
0.742615
0.712759
0.68707
0.662243
0.637133
0.61076
0.583089
0.55442
0.525524
0.810113
0.75486
0.724383
0.697938
0.67224
0.646208
0.618911
0.590354
0.560902
0.531254
0.818871
0.7631
0.732203
0.705248
0.678963
0.652309
0.624392
0.595239
0.565262
0.535106
0.823312
0.767273
0.736163
0.708949
0.682367
0.6554
0.62717
0.597718
0.567488
0.537113
0.823402
0.76735
0.736233
0.709014
0.682428
0.655457
0.627225
0.597771
0.567549
0.537206
0.819139
0.763327
0.732412
0.705442
0.679145
0.65248
0.624554
0.595393
0.565422
0.535306
0.810551
0.755232
0.724725
0.698256
0.672537
0.646485
0.61917
0.590595
0.56113
0.531481
0.797697
0.743123
0.713226
0.687503
0.662646
0.637507
0.611104
0.583403
0.554702
0.525768
0.780667
0.727084
0.697994
0.673256
0.649535
0.6256
0.600403
0.573859
0.546169
0.518187
0.75958
0.70723
0.679136
0.655609
0.633287
0.610836
0.587127
0.562014
0.535579
0.508772
0.734584
0.683702
0.656783
0.634683
0.614007
0.593306
0.571353
0.547934
0.522987
0.497563
0.705854
0.656667
0.631093
0.610618
0.591819
0.573115
0.553171
0.531694
0.508457
0.484611
0.673591
0.626318
0.602245
0.583577
0.566865
0.550385
0.532684
0.513382
0.492065
0.46997
0.638022
0.592869
0.57044
0.553741
0.539303
0.525253
0.510008
0.493095
0.47389
0.453699
0.599395
0.556559
0.535902
0.521313
0.509312
0.49787
0.48527
0.470937
0.454021
0.435861
0.557977
0.517642
0.498871
0.48651
0.477082
0.4684
0.458607
0.447023
0.43255
0.416521
0.514058
0.476394
0.459603
0.449566
0.442819
0.437019
0.430167
0.421474
0.409578
0.395746
0.467938
0.433102
0.418373
0.410729
0.406741
0.403916
0.400107
0.39442
0.385208
0.373601
0.419937
0.38807
0.375463
0.370258
0.369079
0.369289
0.368596
0.365995
0.359549
0.350154
0.37038
0.341609
0.331169
0.328425
0.330074
0.333347
0.335809
0.336346
0.332721
0.325473
0.319606
0.294038
0.285793
0.285508
0.289974
0.296307
0.301933
0.305627
0.304857
0.299614
0.267954
0.245682
0.239643
0.241791
0.249036
0.258397
0.267165
0.273998
0.276069
0.272605
0.21577
0.196866
0.19303
0.197564
0.207522
0.21985
0.231711
0.241604
0.246432
0.244488
0.163396
0.147915
0.146263
0.153115
0.165697
0.180909
0.195796
0.208634
0.216455
0.216238
0.111171
0.0991477
0.0996475
0.108733
0.123826
0.141818
0.159655
0.175416
0.187808
0.193654
0.0594278
0.0508766
0.0534825
0.0646979
0.0821661
0.102799
0.123492
0.142034
0.157947
0.169997
0.00848956
0.0034006
0.00805625
0.0212847
0.0409701
0.0640721
0.0874722
0.108692
0.127458
0.144324
-0.0413401
-0.0429916
-0.0363551
-0.0212437
0.000483629
0.0258579
0.0517807
0.0755893
0.0969355
0.117429
-0.0898079
-0.0880048
-0.0794899
-0.0626356
-0.0390556
-0.0116212
0.0166162
0.0428868
0.0666803
0.0900243
-0.136591
-0.131424
-0.12111
-0.102654
-0.0774213
-0.0481517
-0.0178235
0.0107378
0.0368435
0.0626347
-0.18144
-0.173018
-0.160977
-0.141093
-0.114403
-0.0835314
-0.0513481
-0.0206952
0.00755719
0.0355537
-0.224145
-0.21257
-0.198905
-0.177734
-0.14981
-0.117574
-0.0837785
-0.0512496
-0.0210379
0.00896824
-0.264509
-0.249902
-0.234716
-0.212413
-0.183459
-0.150106
-0.114951
-0.0807732
-0.0488105
-0.0169606
-0.30236
-0.28486
-0.268261
-0.244979
-0.2152
-0.180972
-0.144716
-0.109128
-0.0756538
-0.0420785
-0.337556
-0.317321
-0.299419
-0.275307
-0.244903
-0.21004
-0.172942
-0.136202
-0.101443
-0.0662777
-0.369984
-0.347191
-0.328097
-0.303296
-0.27246
-0.237196
-0.199515
-0.161865
-0.125892
-0.0898451
-0.399563
-0.374404
-0.354231
-0.328878
-0.29779
-0.26235
-0.22434
-0.18605
-0.149152
-0.112479
-0.426244
-0.398924
-0.377785
-0.352009
-0.320838
-0.285433
-0.24734
-0.208672
-0.171099
-0.133797
-0.450005
-0.420742
-0.398753
-0.372673
-0.341572
-0.306399
-0.268457
-0.229662
-0.191655
-0.153872
-0.470858
-0.439879
-0.417154
-0.39088
-0.359989
-0.325228
-0.287654
-0.248973
-0.210779
-0.172745
-0.488838
-0.45638
-0.433032
-0.406667
-0.376109
-0.341918
-0.304915
-0.266581
-0.228441
-0.19039
-0.504011
-0.470313
-0.446456
-0.420094
-0.389974
-0.356494
-0.320243
-0.282474
-0.244617
-0.206784
-0.516464
-0.481769
-0.457515
-0.431241
-0.401651
-0.368999
-0.333662
-0.296657
-0.2593
-0.221919
-0.526306
-0.490857
-0.466318
-0.440209
-0.411224
-0.379498
-0.345211
-0.309152
-0.272497
-0.235805
-0.533666
-0.497704
-0.472988
-0.447115
-0.418795
-0.388072
-0.35495
-0.319995
-0.284229
-0.248459
-0.538689
-0.502447
-0.477662
-0.45209
-0.424484
-0.394818
-0.362953
-0.329238
-0.294528
-0.259916
-0.541532
-0.505236
-0.480488
-0.455275
-0.428419
-0.39985
-0.369308
-0.336946
-0.303442
-0.270217
-0.542362
-0.506228
-0.481617
-0.45682
-0.43074
-0.40329
-0.374117
-0.343198
-0.311027
-0.27942
-0.541351
-0.505583
-0.481209
-0.456878
-0.431594
-0.40527
-0.377491
-0.348082
-0.317354
-0.287589
-0.538677
-0.503465
-0.479422
-0.455606
-0.431131
-0.405928
-0.37955
-0.351696
-0.322498
-0.294797
-0.534517
-0.500036
-0.476414
-0.453159
-0.4295
-0.405404
-0.380417
-0.354142
-0.326543
-0.301124
-0.529045
-0.495453
-0.47234
-0.44969
-0.426852
-0.40384
-0.38022
-0.355527
-0.329576
-0.306651
-0.522432
-0.489872
-0.467347
-0.445345
-0.423331
-0.401373
-0.379083
-0.355958
-0.331686
-0.311456
-0.51484
-0.483437
-0.461577
-0.440264
-0.419076
-0.39814
-0.37713
-0.35554
-0.332959
-0.31561
-0.506421
-0.476286
-0.455162
-0.434579
-0.414218
-0.394267
-0.374481
-0.354374
-0.333477
-0.319174
-0.497317
-0.468548
-0.448226
-0.428412
-0.408879
-0.389876
-0.371246
-0.352554
-0.333313
-0.322186
-0.487659
-0.460339
-0.44088
-0.421872
-0.403171
-0.385078
-0.367529
-0.350166
-0.332529
-0.324659
-0.477565
-0.451766
-0.433226
-0.41506
-0.397195
-0.379973
-0.363424
-0.347285
-0.331175
-0.326571
-0.467141
-0.442926
-0.425353
-0.408063
-0.391038
-0.374651
-0.359017
-0.343976
-0.329285
-0.327843
-0.456484
-0.433903
-0.417342
-0.400958
-0.384777
-0.36919
-0.354378
-0.340291
-0.326868
-0.328305
-0.445678
-0.424774
-0.409261
-0.39381
-0.378478
-0.363656
-0.34957
-0.336274
-0.323934
-0.327633
-0.434805
-0.415608
-0.401172
-0.386675
-0.372193
-0.358103
-0.344637
-0.331966
-0.320537
-0.325457
-0.423936
-0.406468
-0.393129
-0.379599
-0.365966
-0.352569
-0.339596
-0.327335
-0.316515
-0.321162
-0.413143
-0.397408
-0.385178
-0.372625
-0.359837
-0.34709
-0.334456
-0.322242
-0.310546
-0.308527
-0.402489
-0.388482
-0.377364
-0.365793
-0.353851
-0.341738
-0.329362
-0.316939
-0.301662
-0.270216
-0.392039
-0.379738
-0.369727
-0.359141
-0.348058
-0.336621
-0.324626
-0.312363
-0.297216
-0.26126
-0.381848
-0.371218
-0.362303
-0.352701
-0.342493
-0.331795
-0.320378
-0.308675
-0.295175
-0.26247
-0.37197
-0.362963
-0.355123
-0.346495
-0.337171
-0.327254
-0.316545
-0.30555
-0.293393
-0.26436
-0.362449
-0.355007
-0.348212
-0.340541
-0.332097
-0.32298
-0.313035
-0.302798
-0.291681
-0.265991
-0.353325
-0.34738
-0.341593
-0.334854
-0.327275
-0.318956
-0.309794
-0.30033
-0.290144
-0.267562
-0.344632
-0.34011
-0.335288
-0.329444
-0.322705
-0.315169
-0.306782
-0.298077
-0.288737
-0.26897
-0.336401
-0.333223
-0.329315
-0.324326
-0.31839
-0.311609
-0.303969
-0.295983
-0.2874
-0.270105
-0.328659
-0.326743
-0.323694
-0.319509
-0.314335
-0.308268
-0.301336
-0.294016
-0.286106
-0.270984
-0.321431
-0.320693
-0.318443
-0.315009
-0.310545
-0.305147
-0.298871
-0.292155
-0.284843
-0.271556
-0.314744
-0.315093
-0.313583
-0.31084
-0.30703
-0.302246
-0.29657
-0.290394
-0.283611
-0.2719
-0.308623
-0.309967
-0.309131
-0.307017
-0.303802
-0.299575
-0.294437
-0.288738
-0.282422
-0.272047
-0.303093
-0.305338
-0.305108
-0.303558
-0.300875
-0.297145
-0.292483
-0.287199
-0.281304
-0.272014
-0.298181
-0.301227
-0.301533
-0.30048
-0.298264
-0.294969
-0.29072
-0.285796
-0.280283
-0.271834
-0.293912
-0.297657
-0.298425
-0.297801
-0.295986
-0.293062
-0.289166
-0.28454
-0.279247
-0.271707
-0.290311
-0.294646
-0.295804
-0.295537
-0.294058
-0.291442
-0.287837
-0.283457
-0.278364
-0.271584
-0.2874
-0.292214
-0.293684
-0.293706
-0.292494
-0.290124
-0.28675
-0.282564
-0.277642
-0.271404
-0.285198
-0.290375
-0.292081
-0.292319
-0.291308
-0.289122
-0.28592
-0.281877
-0.277085
-0.271228
-0.28372
-0.289141
-0.291006
-0.291388
-0.29051
-0.288447
-0.285359
-0.28141
-0.276706
-0.271096
-0.282978
-0.288522
-0.290466
-0.29092
-0.29011
-0.288108
-0.285076
-0.281174
-0.276514
-0.271026
-0.266515
-0.26155
-0.255979
-0.249923
-0.243311
-0.236205
-0.228651
-0.220698
-0.212402
-0.203822
-0.195017
-0.186046
-0.176966
-0.167832
-0.158695
-0.1496
-0.140591
-0.131705
-0.122978
-0.114439
-0.106115
-0.098028
-0.090199
-0.0826439
-0.0753762
-0.0684065
-0.0617436
-0.0553911
-0.0493578
-0.0436326
-0.0382427
-0.0331262
-0.0284041
-0.023817
-0.019864
-0.015555
-0.0127519
-0.00795441
-0.00755065
4.07631e-06
-0.00573351
0.0110343
-0.266917
-0.261869
-0.256249
-0.250167
-0.243533
-0.236407
-0.228836
-0.22087
-0.212562
-0.203971
-0.195156
-0.186177
-0.17709
-0.167949
-0.158805
-0.149704
-0.140688
-0.131797
-0.123064
-0.114519
-0.106189
-0.0980967
-0.0902624
-0.0827021
-0.0754295
-0.068455
-0.0617877
-0.0554309
-0.0493936
-0.0436647
-0.0382713
-0.0331516
-0.0284266
-0.0238369
-0.0198811
-0.0155706
-0.0127638
-0.00796797
-0.00755603
-1.2429e-05
-0.00572676
0.0110006
-0.267718
-0.262501
-0.256786
-0.250653
-0.243972
-0.236806
-0.229203
-0.221209
-0.212877
-0.204265
-0.195433
-0.186437
-0.177335
-0.168181
-0.159024
-0.14991
-0.140883
-0.131979
-0.123234
-0.114678
-0.106337
-0.0982338
-0.0903888
-0.0828183
-0.0755359
-0.068552
-0.0618757
-0.0555105
-0.0494653
-0.0437289
-0.0383286
-0.0332025
-0.0284714
-0.0238766
-0.0199151
-0.0156019
-0.0127875
-0.00799503
-0.00756673
-4.53566e-05
-0.00571325
0.0109332
-0.268908
-0.263434
-0.257577
-0.251369
-0.24462
-0.237395
-0.229744
-0.221708
-0.213341
-0.2047
-0.195841
-0.186822
-0.177699
-0.168525
-0.159349
-0.150217
-0.141172
-0.132251
-0.123489
-0.114915
-0.106558
-0.0984384
-0.0905777
-0.0829919
-0.0756949
-0.068697
-0.0620074
-0.0556295
-0.0495724
-0.0438249
-0.0384143
-0.0332787
-0.0285385
-0.0239361
-0.019966
-0.0156487
-0.012823
-0.00803553
-0.00758272
-9.45827e-05
-0.0056931
0.0108327
-0.270501
-0.264652
-0.258607
-0.252305
-0.245462
-0.238161
-0.230446
-0.222358
-0.213946
-0.205267
-0.196375
-0.187327
-0.178177
-0.168977
-0.159777
-0.150621
-0.141553
-0.132609
-0.123825
-0.115229
-0.10685
-0.0987095
-0.090828
-0.0832222
-0.0759058
-0.0688893
-0.0621821
-0.0557875
-0.0497147
-0.0439525
-0.038528
-0.0333798
-0.0286276
-0.0240152
-0.0200336
-0.0157108
-0.01287
-0.00808933
-0.00760395
-0.000159921
-0.00566646
0.0106997
-0.272527
-0.266115
-0.259853
-0.253441
-0.246481
-0.239085
-0.231296
-0.223144
-0.21468
-0.205956
-0.197025
-0.187942
-0.178761
-0.169531
-0.160303
-0.151119
-0.142023
-0.133052
-0.124241
-0.115618
-0.107212
-0.0990454
-0.0911385
-0.0835078
-0.0761675
-0.0691282
-0.0623991
-0.0559838
-0.0498915
-0.044111
-0.0386694
-0.0335056
-0.0287384
-0.0241135
-0.0201177
-0.0157881
-0.0129285
-0.00815628
-0.00763036
-0.000241126
-0.00563356
0.0105351
-0.274736
-0.267843
-0.261292
-0.254749
-0.247661
-0.240153
-0.232275
-0.224051
-0.215528
-0.206754
-0.197781
-0.18866
-0.179444
-0.170182
-0.160921
-0.151706
-0.142579
-0.133576
-0.124733
-0.116079
-0.107642
-0.0994444
-0.0915074
-0.0838476
-0.076479
-0.0694125
-0.0626575
-0.0562176
-0.0501021
-0.0442998
-0.0388379
-0.0336554
-0.0288704
-0.0242307
-0.0202178
-0.0158803
-0.0129983
-0.00823618
-0.00766188
-0.000337894
-0.00559467
0.0103399
-0.277191
-0.269818
-0.262899
-0.25621
-0.248975
-0.24134
-0.233363
-0.225061
-0.216474
-0.207648
-0.198631
-0.189471
-0.180218
-0.17092
-0.161625
-0.152376
-0.143214
-0.134177
-0.125298
-0.116609
-0.108136
-0.0999043
-0.091933
-0.0842397
-0.0768387
-0.069741
-0.0629561
-0.0564879
-0.0503456
-0.0445183
-0.0390329
-0.0338288
-0.0290232
-0.0243664
-0.0203338
-0.0159871
-0.013079
-0.0083288
-0.00769843
-0.000449862
-0.00555007
0.0101154
-0.27997
-0.272327
-0.264688
-0.257801
-0.250399
-0.242622
-0.23454
-0.226155
-0.217503
-0.208624
-0.199562
-0.190362
-0.181072
-0.171739
-0.162409
-0.153123
-0.143925
-0.134849
-0.125932
-0.117205
-0.108693
-0.100422
-0.092413
-0.0846823
-0.077245
-0.0701122
-0.0632938
-0.0567937
-0.0506212
-0.0447655
-0.0392535
-0.0340252
-0.0291961
-0.02452
-0.020465
-0.0161082
-0.0131704
-0.00843386
-0.0077399
-0.000576616
-0.00550009
0.00986286
-0.282978
-0.274645
-0.26656
-0.259493
-0.251903
-0.243975
-0.235782
-0.227313
-0.218596
-0.209666
-0.200561
-0.191323
-0.181998
-0.17263
-0.163264
-0.153942
-0.144705
-0.13559
-0.126632
-0.117863
-0.109309
-0.100996
-0.0929451
-0.0851734
-0.077696
-0.0705246
-0.0636691
-0.0571336
-0.0509276
-0.0450405
-0.039499
-0.0342436
-0.0293886
-0.0246911
-0.0206111
-0.0162431
-0.0132722
-0.00855105
-0.00778618
-0.000717688
-0.00544509
0.0095839
-0.28626
-0.277191
-0.268538
-0.261252
-0.25346
-0.245372
-0.237066
-0.228514
-0.219736
-0.210758
-0.201614
-0.192343
-0.182985
-0.173584
-0.164183
-0.154824
-0.145548
-0.136393
-0.127392
-0.118579
-0.109981
-0.101623
-0.0935267
-0.0857106
-0.0781899
-0.0709764
-0.0640804
-0.0575063
-0.0512637
-0.0453422
-0.0397683
-0.0344835
-0.0295999
-0.0248791
-0.0207716
-0.0163914
-0.0133841
-0.00868002
-0.00783714
-0.000872561
-0.00538541
0.0092801
-0.289756
-0.27989
-0.270572
-0.263043
-0.255037
-0.246787
-0.238369
-0.229739
-0.220905
-0.211886
-0.20271
-0.193409
-0.184022
-0.174591
-0.165158
-0.155764
-0.14645
-0.137253
-0.128209
-0.11935
-0.110705
-0.102299
-0.094155
-0.0862915
-0.0787243
-0.0714656
-0.064526
-0.0579102
-0.0516281
-0.0456694
-0.0400605
-0.0347437
-0.0298291
-0.0250832
-0.0209457
-0.0165527
-0.0135055
-0.00882037
-0.00789267
-0.00104067
-0.00532145
0.00895318
-0.292861
-0.282599
-0.272614
-0.264826
-0.256602
-0.248192
-0.23967
-0.230969
-0.222088
-0.213036
-0.203834
-0.19451
-0.185101
-0.175644
-0.166182
-0.156755
-0.147403
-0.138165
-0.129077
-0.120171
-0.111477
-0.103021
-0.0948273
-0.0869137
-0.0792972
-0.0719903
-0.0650043
-0.058344
-0.0520195
-0.046021
-0.0403746
-0.0350235
-0.0300756
-0.0253027
-0.021133
-0.0167264
-0.0136362
-0.0089717
-0.00795264
-0.00122141
-0.00525358
0.00860489
-0.296429
-0.285359
-0.274621
-0.266564
-0.258123
-0.249564
-0.240947
-0.232187
-0.22327
-0.214195
-0.204976
-0.195638
-0.186212
-0.176735
-0.167247
-0.157789
-0.148402
-0.139124
-0.129991
-0.121038
-0.112294
-0.103787
-0.0955408
-0.0875748
-0.0799064
-0.0725488
-0.0655135
-0.058806
-0.0524366
-0.0463958
-0.0407093
-0.0353219
-0.0303384
-0.025537
-0.0213328
-0.016912
-0.0137756
-0.00913356
-0.00801691
-0.00141415
-0.00518216
0.00823698
-0.299821
-0.28802
-0.27655
-0.268212
-0.259563
-0.250874
-0.242181
-0.233376
-0.224436
-0.21535
-0.206125
-0.196781
-0.187345
-0.177854
-0.168346
-0.158861
-0.149441
-0.140124
-0.130948
-0.121947
-0.113152
-0.104592
-0.0962919
-0.0882714
-0.0805488
-0.073138
-0.0660512
-0.059294
-0.0528772
-0.0467918
-0.0410631
-0.0356373
-0.0306163
-0.025785
-0.0215441
-0.0171087
-0.0139232
-0.00930538
-0.00808517
-0.00161825
-0.00510735
0.00785116
-0.302914
-0.290444
-0.278326
-0.269709
-0.260876
-0.252093
-0.243347
-0.234517
-0.22557
-0.216486
-0.207266
-0.197924
-0.188487
-0.178988
-0.169464
-0.159957
-0.150507
-0.141153
-0.131935
-0.122887
-0.114042
-0.105429
-0.0970728
-0.0889965
-0.0812182
-0.0737526
-0.0666123
-0.0598036
-0.0533376
-0.0472058
-0.0414331
-0.0359675
-0.0309072
-0.0260448
-0.0217654
-0.0173153
-0.0140781
-0.00948637
-0.008157
-0.00183293
-0.00502933
0.00744916
-0.305345
-0.292388
-0.279888
-0.271018
-0.26204
-0.253209
-0.244441
-0.235606
-0.226668
-0.217598
-0.208393
-0.199063
-0.189632
-0.180131
-0.170598
-0.161073
-0.151596
-0.142209
-0.13295
-0.123856
-0.11496
-0.106293
-0.0978819
-0.0897488
-0.0819135
-0.0743914
-0.067196
-0.0603342
-0.0538172
-0.0476374
-0.041819
-0.0363121
-0.0312109
-0.0263165
-0.0219969
-0.0175317
-0.0142404
-0.00967614
-0.00823321
-0.00205691
-0.0049499
0.0070333
-0.306823
-0.293861
-0.281338
-0.272196
-0.263095
-0.254262
-0.245504
-0.236688
-0.227775
-0.218734
-0.209555
-0.200247
-0.190831
-0.181336
-0.1718
-0.162261
-0.15276
-0.143341
-0.134041
-0.1249
-0.115952
-0.107229
-0.0987579
-0.0905638
-0.082667
-0.0750839
-0.0678286
-0.060909
-0.0543365
-0.0481043
-0.0422361
-0.036684
-0.0315385
-0.0266088
-0.0222461
-0.0177634
-0.0144155
-0.00987688
-0.00831792
-0.00228879
-0.00487387
0.00660659
-0.30742
-0.294328
-0.28234
-0.273034
-0.263904
-0.255161
-0.246479
-0.237724
-0.228869
-0.219882
-0.210752
-0.201485
-0.192101
-0.182627
-0.173098
-0.163554
-0.154037
-0.144588
-0.13525
-0.126061
-0.117057
-0.108273
-0.0997373
-0.0914756
-0.0835102
-0.0758584
-0.0685356
-0.0615503
-0.0549147
-0.0486229
-0.042698
-0.0370945
-0.0318985
-0.0269286
-0.0225175
-0.0180141
-0.0146044
-0.0100912
-0.00840925
-0.00253213
-0.00479504
0.0061664
-0.300362
-0.289116
-0.281136
-0.272536
-0.263731
-0.255292
-0.246809
-0.238186
-0.22943
-0.220527
-0.211468
-0.202262
-0.192928
-0.183493
-0.173992
-0.164464
-0.154952
-0.145498
-0.136144
-0.12693
-0.117895
-0.109073
-0.100495
-0.0921873
-0.0841735
-0.0764723
-0.0690997
-0.0620655
-0.0553819
-0.0490448
-0.0430754
-0.0374332
-0.0321955
-0.0271984
-0.0227422
-0.0182353
-0.0147562
-0.0102992
-0.00846259
-0.00280141
-0.00465773
0.00569131
-0.263752
-0.274424
-0.278409
-0.271729
-0.263499
-0.25544
-0.247161
-0.238621
-0.229886
-0.220973
-0.211887
-0.202644
-0.193271
-0.183798
-0.174263
-0.164705
-0.155167
-0.145692
-0.136322
-0.127096
-0.118051
-0.109222
-0.100638
-0.0923263
-0.0843096
-0.0766064
-0.0692321
-0.0621969
-0.0555117
-0.049175
-0.0432026
-0.0375643
-0.0323177
-0.0273359
-0.0228511
-0.0183945
-0.0148278
-0.0105212
-0.00843227
-0.00318898
-0.0043611
0.0050072
-0.258448
-0.264054
-0.269896
-0.264545
-0.257215
-0.25002
-0.242471
-0.234504
-0.226243
-0.217744
-0.20903
-0.200128
-0.191068
-0.181884
-0.172616
-0.163304
-0.153991
-0.14472
-0.135532
-0.126469
-0.117569
-0.108866
-0.100392
-0.0921747
-0.0842383
-0.0766025
-0.0692841
-0.0622948
-0.0556459
-0.0493385
-0.0433862
-0.0377667
-0.0325245
-0.02756
-0.0230568
-0.018637
-0.0149997
-0.0108056
-0.0085053
-0.00360136
-0.00417356
0.00422854
-0.253288
-0.25584
-0.261103
-0.256611
-0.250017
-0.243511
-0.236616
-0.229224
-0.221469
-0.21343
-0.205141
-0.196635
-0.187948
-0.179115
-0.170176
-0.161172
-0.152145
-0.143138
-0.134192
-0.125349
-0.116647
-0.108122
-0.0998054
-0.0917271
-0.0839118
-0.076381
-0.0691525
-0.0622396
-0.0556544
-0.0494004
-0.04349
-0.0379066
-0.0326866
-0.0277496
-0.0232446
-0.0188615
-0.0151768
-0.0110747
-0.00860991
-0.00398136
-0.00405941
0.00348296
-0.248137
-0.248222
-0.252468
-0.248618
-0.242655
-0.236709
-0.230391
-0.223549
-0.216302
-0.208734
-0.200888
-0.192798
-0.184503
-0.176041
-0.16745
-0.158773
-0.150051
-0.141327
-0.132643
-0.124038
-0.115553
-0.107223
-0.099082
-0.091159
-0.0834806
-0.0760694
-0.0689443
-0.0621202
-0.0556101
-0.0494195
-0.0435602
-0.0380208
-0.0328305
-0.0279262
-0.0234265
-0.0190814
-0.0153581
-0.0113429
-0.00872791
-0.00436002
-0.00396721
0.00274469
-0.241986
-0.240434
-0.243458
-0.240041
-0.234662
-0.229239
-0.223479
-0.217202
-0.210495
-0.20344
-0.196081
-0.188452
-0.180594
-0.172544
-0.164342
-0.15603
-0.147649
-0.139242
-0.130849
-0.122513
-0.114272
-0.106162
-0.098219
-0.0904722
-0.0829495
-0.0756747
-0.0686682
-0.0619463
-0.0555229
-0.049406
-0.0436067
-0.0381186
-0.0329649
-0.0280976
-0.0236093
-0.0193025
-0.0155481
-0.0116137
-0.00886202
-0.00473793
-0.0038982
0.00201873
-0.234255
-0.231923
-0.233751
-0.230662
-0.22587
-0.220977
-0.215777
-0.210083
-0.20395
-0.197449
-0.190621
-0.183502
-0.176127
-0.168536
-0.160769
-0.152865
-0.144867
-0.136815
-0.128753
-0.120719
-0.112754
-0.104896
-0.0971778
-0.0896327
-0.0822889
-0.0751716
-0.0683025
-0.0616994
-0.0553777
-0.0493471
-0.0436192
-0.0381915
-0.0330831
-0.0282583
-0.0237887
-0.0195214
-0.0157448
-0.0118843
-0.00901219
-0.00511021
-0.00385726
0.00131646
-0.224845
-0.222388
-0.223206
-0.22043
-0.216259
-0.211927
-0.207299
-0.202206
-0.196676
-0.190764
-0.184507
-0.177937
-0.171089
-0.164
-0.156709
-0.149256
-0.14168
-0.134023
-0.126326
-0.11863
-0.110975
-0.103398
-0.0959353
-0.0886189
-0.0814788
-0.0745415
-0.0678302
-0.0613643
-0.0551606
-0.0492308
-0.0435871
-0.0382304
-0.0331771
-0.0284017
-0.0239591
-0.0197333
-0.0159438
-0.0121516
-0.00917545
-0.00547337
-0.00384433
0.000647948
-0.213793
-0.211709
-0.211786
-0.209358
-0.205846
-0.202117
-0.198082
-0.193607
-0.188702
-0.183408
-0.177754
-0.171768
-0.165483
-0.158934
-0.152158
-0.145191
-0.138075
-0.130849
-0.123554
-0.116231
-0.108918
-0.101654
-0.0944749
-0.0874145
-0.0805036
-0.0737698
-0.0672377
-0.0609285
-0.0548602
-0.0490466
-0.0435008
-0.0382268
-0.0332393
-0.0285214
-0.0241144
-0.0199336
-0.0161406
-0.0124119
-0.00934802
-0.00582427
-0.00385741
2.22415e-05
-0.201303
-0.199922
-0.199554
-0.197529
-0.194707
-0.191615
-0.188194
-0.184351
-0.180087
-0.175428
-0.1704
-0.165025
-0.159331
-0.153351
-0.14712
-0.140674
-0.13405
-0.127288
-0.120428
-0.113508
-0.106569
-0.0996482
-0.0927821
-0.0860051
-0.0793489
-0.0728424
-0.0665117
-0.0603792
-0.0544647
-0.0487837
-0.0433505
-0.038172
-0.0332619
-0.0286103
-0.0242483
-0.0201168
-0.0163298
-0.0126615
-0.0095256
-0.00615933
-0.00389377
-0.000552216
-0.18771
-0.187198
-0.186663
-0.185093
-0.182972
-0.180538
-0.177744
-0.174538
-0.170918
-0.166903
-0.162509
-0.157759
-0.152678
-0.147284
-0.141621
-0.13572
-0.129615
-0.123345
-0.116947
-0.11046
-0.103922
-0.0973724
-0.0908463
-0.0843789
-0.0780024
-0.071747
-0.0656397
-0.0597045
-0.0539625
-0.0484312
-0.043126
-0.0380567
-0.0332361
-0.0286609
-0.0243537
-0.0202771
-0.0165058
-0.0128958
-0.00970333
-0.00647456
-0.00394992
-0.00106798
-0.173419
-0.173805
-0.173332
-0.172253
-0.170818
-0.169039
-0.16687
-0.164293
-0.16131
-0.157932
-0.154172
-0.150045
-0.145571
-0.140785
-0.135704
-0.130363
-0.124795
-0.119036
-0.113123
-0.107091
-0.10098
-0.0948248
-0.088663
-0.0825291
-0.0764559
-0.070474
-0.0646115
-0.0588938
-0.0533432
-0.0479789
-0.0428176
-0.0378714
-0.0331533
-0.028665
-0.0244232
-0.020408
-0.0166622
-0.0131098
-0.00987584
-0.00676574
-0.00402156
-0.00151909
-0.158851
-0.160059
-0.159809
-0.159233
-0.158443
-0.157292
-0.155729
-0.15376
-0.151393
-0.148635
-0.145492
-0.14198
-0.138117
-0.133924
-0.129426
-0.124651
-0.119629
-0.114393
-0.108978
-0.103419
-0.0977514
-0.0920113
-0.0862343
-0.0804547