/*--------------------------------*- C++ -*----------------------------------*\
  =========                 |
  \\      /  F ield         | OpenFOAM: The Open Source CFD Toolbox
   \\    /   O peration     | Website:  https://openfoam.org
    \\  /    A nd           | Version:  7
     \\/     M anipulation  |
\*---------------------------------------------------------------------------*/
FoamFile
{
    version     2.0;
    format      ascii;
    class       volScalarField;
    location    "15";
    object      p;
}
// * * * * * * * * * * * * * * * * * * * * * * * * * * * * * * * * * * * * * //

dimensions      [0 2 -2 0 0 0 0];

internalField   nonuniform List<scalar> 
6386
(
-0.367618
-0.377159
-0.387056
-0.397265
-0.384927
-0.407733
-0.393687
-0.418403
-0.402629
-0.390371
-0.429213
-0.411704
-0.398337
-0.384781
-0.440097
-0.420859
-0.406395
-0.391871
-0.450984
-0.430038
-0.414498
-0.399021
-0.383662
-0.461801
-0.439179
-0.422591
-0.406182
-0.389976
-0.374361
-0.472469
-0.448213
-0.430614
-0.4133
-0.396249
-0.379834
-0.364169
-0.4829
-0.457062
-0.438497
-0.420307
-0.402417
-0.385167
-0.368586
-0.352407
-0.493
-0.465642
-0.44616
-0.427129
-0.408404
-0.390282
-0.372697
-0.355291
-0.337599
-0.502661
-0.473856
-0.453512
-0.433676
-0.414119
-0.395087
-0.376419
-0.35768
-0.338379
-0.327175
-0.511765
-0.481597
-0.460453
-0.439849
-0.419463
-0.399482
-0.379656
-0.359498
-0.338537
-0.324152
-0.520181
-0.488747
-0.466869
-0.445537
-0.424324
-0.403356
-0.382304
-0.360658
-0.33801
-0.320576
-0.527767
-0.495179
-0.472638
-0.450618
-0.428579
-0.406588
-0.384252
-0.361068
-0.336725
-0.316406
-0.53437
-0.500755
-0.477627
-0.45496
-0.432097
-0.409049
-0.385381
-0.360625
-0.334599
-0.311584
-0.539828
-0.505328
-0.481695
-0.458423
-0.434738
-0.410605
-0.385567
-0.359226
-0.331548
-0.306038
-0.543971
-0.508745
-0.484693
-0.460861
-0.436359
-0.411117
-0.384685
-0.356762
-0.327482
-0.299689
-0.546624
-0.510848
-0.486466
-0.46212
-0.436809
-0.410444
-0.382608
-0.353128
-0.322316
-0.292457
-0.547611
-0.511473
-0.486858
-0.462046
-0.435939
-0.408446
-0.379213
-0.348221
-0.315964
-0.284263
-0.546754
-0.51046
-0.485708
-0.460482
-0.433597
-0.404984
-0.37438
-0.341943
-0.308352
-0.275034
-0.543881
-0.507645
-0.48286
-0.457274
-0.429639
-0.399927
-0.367999
-0.334207
-0.299411
-0.264704
-0.538825
-0.502875
-0.47816
-0.452274
-0.423925
-0.393153
-0.359968
-0.324935
-0.289082
-0.253219
-0.531429
-0.495998
-0.471462
-0.445341
-0.416325
-0.38455
-0.350198
-0.314061
-0.27732
-0.240535
-0.52155
-0.486878
-0.462629
-0.436343
-0.406722
-0.37402
-0.338617
-0.301534
-0.264092
-0.226621
-0.509059
-0.475388
-0.451538
-0.425164
-0.395013
-0.361482
-0.325165
-0.287318
-0.249378
-0.211455
-0.493847
-0.461421
-0.43808
-0.411704
-0.381114
-0.346873
-0.309803
-0.271392
-0.23317
-0.195032
-0.475828
-0.444885
-0.422169
-0.395884
-0.364961
-0.330148
-0.292508
-0.253752
-0.215478
-0.177357
-0.454937
-0.425714
-0.403734
-0.377642
-0.346509
-0.311285
-0.273277
-0.234408
-0.196323
-0.158455
-0.431139
-0.403861
-0.382733
-0.356945
-0.325741
-0.290284
-0.252127
-0.213386
-0.175738
-0.13835
-0.404423
-0.379309
-0.359146
-0.333781
-0.30266
-0.267168
-0.229094
-0.190732
-0.153761
-0.117
-0.374812
-0.352065
-0.332981
-0.308168
-0.277298
-0.241983
-0.204237
-0.166517
-0.130474
-0.094333
-0.342355
-0.322167
-0.304274
-0.280148
-0.249711
-0.214796
-0.177634
-0.140826
-0.106008
-0.070741
-0.307135
-0.28968
-0.27309
-0.249794
-0.21998
-0.185699
-0.149379
-0.113724
-0.0801808
-0.0465248
-0.269265
-0.254701
-0.239522
-0.217203
-0.188213
-0.154806
-0.119587
-0.0853415
-0.0533092
-0.0213842
-0.228886
-0.217352
-0.203691
-0.182503
-0.154541
-0.12225
-0.0883896
-0.0557923
-0.0255111
0.00456784
-0.186172
-0.177785
-0.165747
-0.145844
-0.119113
-0.0881857
-0.055936
-0.0252139
0.00310804
0.0311746
-0.141319
-0.136182
-0.125867
-0.107391
-0.0821146
-0.0527864
-0.0223903
0.00624131
0.0324167
0.0582739
-0.0945364
-0.0927592
-0.0842396
-0.0673602
-0.0437346
-0.0162389
0.0120687
0.0384111
0.0622745
0.0856774
-0.0460763
-0.0477453
-0.0411005
-0.0259601
-0.00418377
0.0212551
0.0472506
0.071133
0.0925496
0.113089
0.00374128
-0.00135676
0.00331184
0.0165734
0.0363118
0.0594822
0.082958
0.104254
0.123091
0.139973
0.054663
0.0461121
0.048736
0.0599892
0.0775149
0.0982211
0.118994
0.137617
0.153595
0.165592
0.106386
0.0943732
0.0948967
0.104024
0.11918
0.13725
0.155173
0.171026
0.183479
0.189189
0.158587
0.143128
0.141506
0.148406
0.161055
0.176351
0.191331
0.204272
0.212159
0.211919
0.210936
0.192067
0.188267
0.192853
0.202883
0.2153
0.227262
0.237265
0.242181
0.240314
0.263096
0.24087
0.234873
0.237079
0.2444
0.253855
0.262728
0.269675
0.271848
0.268535
0.314724
0.289216
0.281018
0.280795
0.285342
0.291772
0.297506
0.301317
0.300656
0.295585
0.36548
0.33678
0.326392
0.323715
0.325446
0.328819
0.331391
0.332046
0.328533
0.321457
0.415023
0.38324
0.37069
0.365554
0.36446
0.364769
0.364187
0.361702
0.355368
0.34614
0.463019
0.428278
0.413609
0.406036
0.402133
0.399407
0.395707
0.390133
0.381031
0.369582
0.509143
0.471583
0.454857
0.444891
0.438228
0.432524
0.425777
0.417195
0.405405
0.391721
0.553081
0.512857
0.494152
0.481861
0.472514
0.463924
0.454231
0.442752
0.428382
0.412491
0.59453
0.551811
0.531221
0.5167
0.504776
0.493419
0.480913
0.466678
0.449858
0.431826
0.633207
0.588173
0.565808
0.549174
0.534807
0.520834
0.505675
0.488851
0.469736
0.449661
0.668843
0.621687
0.597675
0.579067
0.562418
0.546007
0.528381
0.509158
0.487922
0.465932
0.701191
0.652117
0.6266
0.606178
0.587434
0.568787
0.548906
0.527496
0.504331
0.480577
0.730026
0.679248
0.65238
0.630324
0.609694
0.589039
0.567135
0.54377
0.518881
0.493537
0.755145
0.702887
0.674835
0.651345
0.629057
0.60664
0.582967
0.557893
0.531502
0.504758
0.776373
0.722865
0.693808
0.669097
0.6454
0.621486
0.596311
0.569791
0.54213
0.514192
0.793559
0.73904
0.709166
0.68346
0.658616
0.633486
0.607092
0.5794
0.55071
0.521795
0.806581
0.751294
0.720799
0.694337
0.66862
0.642567
0.615249
0.586669
0.557196
0.527528
0.815346
0.75954
0.728625
0.701652
0.675348
0.648674
0.620734
0.591558
0.561559
0.531383
0.81979
0.763717
0.732588
0.705356
0.678754
0.651766
0.623514
0.594039
0.563787
0.533391
0.81988
0.763793
0.732658
0.705421
0.678816
0.651824
0.623569
0.594092
0.563848
0.533484
0.815613
0.759767
0.728834
0.701847
0.67553
0.648845
0.620896
0.591712
0.561719
0.531582
0.807019
0.751666
0.721141
0.694655
0.668917
0.642845
0.615508
0.58691
0.557424
0.527755
0.794155
0.739547
0.709632
0.683893
0.659018
0.633859
0.607436
0.579714
0.550991
0.522038
0.777112
0.723495
0.694388
0.669634
0.645897
0.621943
0.596727
0.570163
0.542454
0.514453
0.756009
0.703625
0.675514
0.651973
0.629636
0.607169
0.583441
0.55831
0.531856
0.505032
0.730994
0.680078
0.653142
0.63103
0.610341
0.589625
0.567656
0.544219
0.519255
0.493816
0.702242
0.65302
0.62743
0.606944
0.588135
0.569418
0.54946
0.527968
0.504716
0.480855
0.669953
0.622645
0.598557
0.57988
0.563159
0.546669
0.528958
0.509643
0.488312
0.466204
0.634355
0.589167
0.566725
0.550019
0.535574
0.521517
0.506264
0.489341
0.470124
0.449922
0.595695
0.552824
0.532156
0.517561
0.505557
0.494111
0.481506
0.467166
0.450241
0.432072
0.554243
0.513872
0.49509
0.482726
0.473298
0.464616
0.454821
0.443233
0.428755
0.412719
0.510284
0.472585
0.455785
0.445747
0.439003
0.433207
0.426357
0.417664
0.405765
0.391928
0.464123
0.429252
0.414514
0.406872
0.402891
0.400074
0.396271
0.390587
0.381376
0.369767
0.416077
0.384175
0.371561
0.366361
0.365193
0.365415
0.364732
0.362139
0.355696
0.346303
0.366472
0.337666
0.32722
0.324485
0.326148
0.329438
0.331914
0.332464
0.328847
0.321603
0.315646
0.290044
0.281795
0.281521
0.286006
0.292361
0.298006
0.301718
0.300959
0.295724
0.263941
0.241635
0.235594
0.237756
0.245024
0.254411
0.263203
0.270058
0.272146
0.268693
0.2117
0.192763
0.188927
0.193477
0.203463
0.215822
0.227714
0.237634
0.242483
0.240554
0.159267
0.143753
0.142103
0.148975
0.161588
0.176837
0.191759
0.20463
0.212478
0.212282
0.106981
0.094926
0.0954284
0.104536
0.119666
0.137699
0.155578
0.171377
0.183804
0.189682
0.0551749
0.0465925
0.0492025
0.0604439
0.0779525
0.098633
0.119373
0.137957
0.153911
0.166001
0.00417135
-0.000947554
0.00371381
0.016971
0.0367011
0.0598554
0.0833083
0.104576
0.123388
0.1403
-0.0457251
-0.0474051
-0.0407614
-0.0256185
-0.00384242
0.0215894
0.0475707
0.0714333
0.0928299
0.113375
-0.0942603
-0.0924852
-0.083961
-0.067073
-0.0434402
-0.0159433
0.0123584
0.0386889
0.0625383
0.0859398
-0.141113
-0.135971
-0.125646
-0.107156
-0.0818655
-0.0525286
-0.0221306
0.00649655
0.0326639
0.058518
-0.186031
-0.177632
-0.16558
-0.145658
-0.118907
-0.0879643
-0.0557056
-0.024981
0.00333876
0.0314036
-0.228806
-0.217252
-0.203574
-0.182363
-0.154376
-0.122063
-0.0881875
-0.0555811
-0.0252964
0.00478375
-0.269239
-0.25465
-0.239451
-0.217105
-0.188087
-0.154653
-0.119412
-0.0851515
-0.0531102
-0.0211803
-0.307158
-0.289674
-0.273061
-0.249735
-0.219889
-0.185577
-0.14923
-0.113555
-0.0799968
-0.0463328
-0.342421
-0.3222
-0.304282
-0.280125
-0.249652
-0.214702
-0.177509
-0.140676
-0.105837
-0.0705622
-0.374915
-0.352133
-0.333021
-0.308176
-0.277269
-0.241916
-0.204136
-0.166386
-0.13032
-0.0941661
-0.404558
-0.379406
-0.359215
-0.333816
-0.302657
-0.267125
-0.229014
-0.190619
-0.153623
-0.116844
-0.4313
-0.403983
-0.382826
-0.357004
-0.32576
-0.290263
-0.252067
-0.213291
-0.175613
-0.138204
-0.455121
-0.425857
-0.403848
-0.377721
-0.346549
-0.311283
-0.273235
-0.234328
-0.196213
-0.158321
-0.476028
-0.445045
-0.422299
-0.39598
-0.365018
-0.330163
-0.292482
-0.253688
-0.215381
-0.177234
-0.494061
-0.461594
-0.438224
-0.411814
-0.381186
-0.346903
-0.309792
-0.271342
-0.233086
-0.19492
-0.509281
-0.47557
-0.451691
-0.425284
-0.395096
-0.361525
-0.325167
-0.287281
-0.249305
-0.211354
-0.521778
-0.487066
-0.462789
-0.436471
-0.406814
-0.374074
-0.33863
-0.301509
-0.264031
-0.22653
-0.53166
-0.49619
-0.471626
-0.445474
-0.416425
-0.384612
-0.350222
-0.314046
-0.277269
-0.240454
-0.539055
-0.503068
-0.478326
-0.452411
-0.424029
-0.393222
-0.359999
-0.324929
-0.289041
-0.253148
-0.544109
-0.507837
-0.483026
-0.457413
-0.429747
-0.400001
-0.368037
-0.334209
-0.299378
-0.264641
-0.546977
-0.510648
-0.485873
-0.46062
-0.433706
-0.405061
-0.374424
-0.341952
-0.308328
-0.274979
-0.547828
-0.511658
-0.487019
-0.462182
-0.436047
-0.408525
-0.379261
-0.348236
-0.315947
-0.284216
-0.546834
-0.511027
-0.486623
-0.462253
-0.436917
-0.410524
-0.382659
-0.353148
-0.322304
-0.292418
-0.544172
-0.508918
-0.484844
-0.46099
-0.436464
-0.411197
-0.384737
-0.356786
-0.327477
-0.299656
-0.54002
-0.505493
-0.48184
-0.458548
-0.434841
-0.410684
-0.38562
-0.359252
-0.331547
-0.306011
-0.534552
-0.500912
-0.477765
-0.455079
-0.432195
-0.409125
-0.385434
-0.360654
-0.334602
-0.311563
-0.527938
-0.495328
-0.472769
-0.450731
-0.428673
-0.406662
-0.384304
-0.361098
-0.336731
-0.316391
-0.520341
-0.488887
-0.466993
-0.445644
-0.424413
-0.403427
-0.382355
-0.360689
-0.338019
-0.320565
-0.511915
-0.481728
-0.460569
-0.43995
-0.419548
-0.39955
-0.379705
-0.359529
-0.338548
-0.324146
-0.5028
-0.473978
-0.453621
-0.433771
-0.414199
-0.395151
-0.376467
-0.357711
-0.338392
-0.327173
-0.493129
-0.465756
-0.446261
-0.427217
-0.408478
-0.390342
-0.372743
-0.355321
-0.48302
-0.457168
-0.438591
-0.420389
-0.402487
-0.385224
-0.368629
-0.352436
-0.472578
-0.44831
-0.430701
-0.413376
-0.396313
-0.379887
-0.364209
-0.461902
-0.439269
-0.422672
-0.406252
-0.390035
-0.374409
-0.451076
-0.430121
-0.414572
-0.399086
-0.383718
-0.440181
-0.420935
-0.406463
-0.391931
-0.42929
-0.411773
-0.3984
-0.384836
-0.418473
-0.402692
-0.390429
-0.407796
-0.393745
-0.397321
-0.384979
-0.387107
-0.377205
-0.222248
-0.232272
-0.241217
-0.249118
-0.256021
-0.261988
-0.267095
-0.271434
-0.275108
-0.278235
-0.280945
-0.198455
-0.208376
-0.217491
-0.225834
-0.233452
-0.240402
-0.246751
-0.252579
-0.257975
-0.26304
-0.267883
-0.177087
-0.186776
-0.195879
-0.204423
-0.212441
-0.21997
-0.227056
-0.23375
-0.240107
-0.246193
-0.252076
-0.15772
-0.166982
-0.175805
-0.18421
-0.192221
-0.199866
-0.207179
-0.214196
-0.22096
-0.227521
-0.233934
-0.140273
-0.149057
-0.157515
-0.165665
-0.173527
-0.181125
-0.188486
-0.195641
-0.202627
-0.209483
-0.216258
-0.124581
-0.132863
-0.140906
-0.148724
-0.156335
-0.163759
-0.171017
-0.178137
-0.185146
-0.192079
-0.198973
-0.11043
-0.1182
-0.125794
-0.133223
-0.140502
-0.147649
-0.154682
-0.161622
-0.168492
-0.175321
-0.182139
-0.097635
-0.104896
-0.112025
-0.119034
-0.125935
-0.132742
-0.139471
-0.146138
-0.152764
-0.15937
-0.165984
-0.0860333
-0.0927952
-0.0994594
-0.106035
-0.112533
-0.118964
-0.125341
-0.131677
-0.137989
-0.144295
-0.150616
-0.0754828
-0.0817625
-0.0879693
-0.0941108
-0.100195
-0.106232
-0.11223
-0.118201
-0.124158
-0.130116
-0.13609
-0.0658622
-0.0716805
-0.0774439
-0.0831583
-0.0888304
-0.0944674
-0.100077
-0.105668
-0.11125
-0.116835
-0.122434
-0.057072
-0.0624515
-0.0677892
-0.0730898
-0.0783586
-0.0836011
-0.0888233
-0.0940318
-0.0992341
-0.104438
-0.109654
-0.0490255
-0.0539909
-0.058924
-0.0638286
-0.0687087
-0.0735685
-0.0784127
-0.0832461
-0.0880743
-0.0929033
-0.09774
-0.041648
-0.0462254
-0.0507774
-0.055307
-0.0598172
-0.0643112
-0.0687925
-0.0732648
-0.077732
-0.0821985
-0.0866692
-0.0348795
-0.0390947
-0.0432897
-0.0474667
-0.0516281
-0.0557761
-0.0599134
-0.0640426
-0.0681665
-0.0722884
-0.0764117
-0.0286635
-0.0325429
-0.0364059
-0.0402542
-0.0440893
-0.047913
-0.0517273
-0.0555341
-0.0593354
-0.0631334
-0.0669306
-0.0229558
-0.0265245
-0.0300797
-0.0336224
-0.037154
-0.0406758
-0.0441889
-0.047695
-0.0511953
-0.0546915
-0.0581853
-0.0177126
-0.0209952
-0.0242663
-0.0275269
-0.0307778
-0.0340198
-0.037254
-0.0404812
-0.0437026
-0.0469192
-0.0501321
-0.012897
-0.0159167
-0.0189266
-0.0219274
-0.0249194
-0.0279035
-0.0308801
-0.03385
-0.0368139
-0.0397725
-0.0427266
-0.0084757
-0.0112543
-0.0140245
-0.0167866
-0.0195408
-0.0222875
-0.0250273
-0.0277604
-0.0304873
-0.0332086
-0.0359246
-0.00441709
-0.00697529
-0.00952604
-0.0120694
-0.0146056
-0.0171347
-0.019657
-0.0221728
-0.0246822
-0.0271857
-0.0296834
-0.000694631
-0.00305137
-0.00540134
-0.00774456
-0.0100811
-0.0124108
-0.014734
-0.0170506
-0.0193607
-0.0216645
-0.0239622
-0.0262539
0.00271807
0.000545139
-0.00162158
-0.003782
-0.00593602
-0.00808354
-0.0102245
-0.0123589
-0.0144867
-0.0166079
-0.0187226
-0.0208308
0.00584253
0.00383742
0.00183804
-0.0001554
-0.0021427
-0.00412368
-0.00609818
-0.00806606
-0.0100272
-0.0119816
-0.013929
-0.0158695
0.00870123
0.00684895
0.00500204
0.0031608
0.00132551
-0.00050357
-0.00232621
-0.00414219
-0.00595132
-0.00775343
-0.00954836
-0.011336
0.0113129
0.00959969
0.00789164
0.00618905
0.00449226
0.00280159
0.00111734
-0.000560224
-0.00223083
-0.00389425
-0.00555025
-0.00719865
0.0136952
0.0121085
0.0105268
0.00895031
0.00737954
0.00581481
0.00425647
0.00270485
0.00116025
-0.000377032
-0.00190673
-0.00342859
0.015864
0.0143923
0.0129253
0.0114635
0.0100072
0.00855694
0.007113
0.00567577
0.0042456
0.00282283
0.00140775
6.67725e-07
0.0178341
0.0164666
0.0151038
0.0137459
0.0123935
0.011047
0.00970682
0.00837331
0.00704686
0.00572781
0.00441653
0.00311331
0.0196186
0.0183455
0.0170769
0.0158132
0.0145548
0.0133023
0.012056
0.0108163
0.00958363
0.00835834
0.0071408
0.00593134
0.0212295
0.0200417
0.0188582
0.0176796
0.0165062
0.0153384
0.0141769
0.0130218
0.0118737
0.0107329
0.00959978
0.00847469
0.0226775
0.0215666
0.0204598
0.0193577
0.0182608
0.0171694
0.0160841
0.0150051
0.013933
0.0128681
0.0118107
0.0107613
0.0239726
0.0229305
0.0218926
0.0208592
0.0198308
0.0188079
0.0177908
0.01678
0.0157758
0.0147787
0.013789
0.0128071
0.0251229
0.0241424
0.0231659
0.0221938
0.0212265
0.0202646
0.0193084
0.0183582
0.0174146
0.0164778
0.0155482
0.0146262
0.0261362
0.0252103
0.0242882
0.0233704
0.0224573
0.0215493
0.0206469
0.0197504
0.0188601
0.0179765
0.0170999
0.0162306
0.0270184
0.0261404
0.0252661
0.024396
0.0235304
0.0226698
0.0218145
0.0209649
0.0201213
0.0192842
0.0184537
0.0176303
0.0277748
0.0269383
0.0261055
0.0252766
0.0244521
0.0236324
0.0228178
0.0220087
0.0212053
0.0204081
0.0196174
0.0188334
0.0284084
0.0276073
0.0268096
0.0260159
0.0252263
0.0244413
0.0236613
0.0228864
0.0221171
0.0213536
0.0205962
0.0198453
0.028922
0.02815
0.0273814
0.0266165
0.0258557
0.0250992
0.0243473
0.0236005
0.0228589
0.0221228
0.0213926
0.0206684
0.0293137
0.028565
0.0278195
0.0270776
0.0263396
0.0256057
0.0248763
0.0241515
0.0234317
0.022717
0.0220078
0.0213043
0.0295838
0.0288514
0.0281222
0.0273963
0.0266742
0.025956
0.025242
0.0245324
0.0238275
0.0231275
0.0224326
0.021743
0.0297223
0.0290014
0.0282836
0.027569
0.0268579
0.0261505
0.0254468
0.0247471
0.0240517
0.0233606
0.022674
0.0219921
0.182433
0.154725
0.127323
0.102242
0.0772886
0.0524639
0.0281475
0.00444502
-0.0185949
-0.0409137
-0.0624123
-0.082719
-0.102536
-0.121279
-0.138925
-0.155527
-0.171073
-0.185531
-0.198883
-0.211122
0.169278
0.144082
0.117583
0.0944647
0.0719935
0.0496401
0.0278256
0.00667895
-0.0138041
-0.0336064
-0.0527396
-0.0712103
-0.0883729
-0.105157
-0.121078
-0.136109
-0.150294
-0.163625
-0.176094
-0.1877
0.151773
0.128196
0.103937
0.0832226
0.0634728
0.043896
0.0248154
0.00636288
-0.0114889
-0.0287436
-0.045384
-0.0613518
-0.0763629
-0.0915118
-0.105781
-0.119272
-0.13211
-0.14431
-0.155869
-0.16679
0.1355
0.114376
0.0929823
0.0747221
0.0573761
0.0401824
0.0233995
0.00716107
-0.00855906
-0.0237812
-0.0385088
-0.0528039
-0.0667691
-0.0795481
-0.0921592
-0.104338
-0.115995
-0.12715
-0.137817
-0.148004
0.121443
0.102673
0.0839387
0.067867
0.0525861
0.0374454
0.0226531
0.00832847
-0.0055501
-0.0190059
-0.0320385
-0.0446498
-0.0568499
-0.0685155
-0.0799536
-0.0909892
-0.101602
-0.111823
-0.121668
-0.131148
0.109513
0.0927918
0.0763932
0.0622418
0.0487505
0.0353888
0.0223262
0.0096605
-0.00262792
-0.0145633
-0.0261517
-0.0373953
-0.0482944
-0.0588233
-0.0691459
-0.0791366
-0.0888005
-0.0981641
-0.107242
-0.116045
0.0993572
0.084458
0.0701099
0.0576518
0.0457256
0.0339103
0.0223481
0.011117
0.000198015
-0.0104322
-0.0207827
-0.0308609
-0.0406874
-0.0502887
-0.0594892
-0.0685285
-0.0773525
-0.085943
-0.0943117
-0.102471
0.0907251
0.077457
0.0648947
0.0539162
0.0433544
0.0328814
0.0226203
0.0126327
0.00290133
-0.00659448
-0.0158632
-0.0249102
-0.0337441
-0.042374
-0.0507689
-0.0590185
-0.0670848
-0.0749674
-0.0826798
-0.0902328
0.0834105
0.0715942
0.0605773
0.0508839
0.0415094
0.0322022
0.0230706
0.0141636
0.00546516
-0.00304251
-0.0113671
-0.019514
-0.0274893
-0.0352949
-0.0429168
-0.050467
-0.057849
-0.0650809
-0.0721833
-0.0791653
0.0772194
0.0666889
0.0570063
0.0484277
0.0400871
0.0317944
0.0236459
0.0156805
0.00788318
0.000238658
-0.00726017
-0.0146186
-0.0218431
-0.0289443
-0.0359313
-0.0427583
-0.0494971
-0.0561372
-0.062677
-0.0691232
0.0719804
0.0625857
0.0540556
0.0464449
0.0390064
0.0315992
0.0243093
0.0171677
0.0101609
0.00327604
-0.00349289
-0.0101502
-0.0167009
-0.0231525
-0.0295137
-0.0357506
-0.0419219
-0.0480189
-0.0540376
-0.0599832
0.0675482
0.0591553
0.0516219
0.0448532
0.0382036
0.0315713
0.0250339
0.018616
0.0123057
0.00609205
-2.95835e-05
-0.00606277
-0.0120115
-0.0178805
-0.0236745
-0.0293874
-0.0350425
-0.0406361
-0.0461691
-0.0516461
0.0638001
0.0562904
0.0496206
0.043586
0.0376279
0.031676
0.0258002
0.0200204
0.0143256
0.00870712
0.00316116
-0.00231514
-0.00772512
-0.0130725
-0.0183602
-0.0235871
-0.0287702
-0.0339011
-0.0389841
-0.0440243
0.0606329
0.053902
0.047982
0.0425891
0.0372391
0.0318863
0.0265942
0.0213786
0.0162301
0.0111413
0.00610944
0.00113252
-0.00379204
-0.00866685
-0.0134921
-0.0182644
-0.0230268
-0.027738
-0.032407
-0.0370426
0.05796
0.0519164
0.0466488
0.0418181
0.037004
0.0321802
0.0274042
0.0226889
0.0180257
0.0134088
0.00883596
0.00430554
-0.000184518
-0.00463665
-0.00905509
-0.0134446
-0.0177772
-0.0220904
-0.0263795
-0.0306419
0.0557084
0.0502721
0.0455733
0.0412365
0.0368959
0.0325404
0.0282223
0.023952
0.0197219
0.0155274
0.011367
0.00723963
0.00314384
-0.000921858
-0.00495969
-0.00897237
-0.0129493
-0.0169085
-0.0208479
-0.0247658
0.053816
0.0489176
0.0447158
0.0408136
0.0368924
0.0329523
0.0290412
0.0251675
0.0213245
0.0175085
0.0137185
0.00995397
0.00621384
0.00249707
-0.00119757
-0.00487131
-0.00852209
-0.012156
-0.0157727
-0.0193723
0.0522304
0.0478092
0.0440422
0.0405233
0.0369742
0.0334035
0.0298549
0.0263352
0.0228386
0.0193621
0.0159053
0.0124678
0.00904898
0.00564818
0.0022646
-0.00110243
-0.00445239
-0.00778826
-0.0111099
-0.0144178
0.0509063
0.0469093
0.0435236
0.0403432
0.0371247
0.0338828
0.0306575
0.0274544
0.0242682
0.0210967
0.0179397
0.0147972
0.0116689
0.00855433
0.0054531
0.00236484
-0.00071022
-0.0037741
-0.00682625
-0.00986704
0.0498047
0.0461857
0.0431346
0.0402535
0.0373293
0.0343806
0.031444
0.0285242
0.0256164
0.022719
0.019832
0.0169557
0.01409
0.0112347
0.00838957
0.00555461
0.00273015
-8.60718e-05
-0.00289206
-0.00568838
0.0488919
0.0456104
0.0428535
0.0402373
0.0375752
0.0348884
0.0322099
0.0295439
0.0268861
0.0242353
0.0215919
0.0189561
0.0163282
0.013708
0.0110958
0.00849215
0.00589817
0.00330451
0.00072183
-0.00185147
0.0481384
0.0451588
0.0426608
0.0402794
0.037851
0.035398
0.0329505
0.0305119
0.0280786
0.0256496
0.0232253
0.0208063
0.0183927
0.0159848
0.0135826
0.0111859
0.00879393
0.00641477
0.00403926
0.00166898
0.0475186
0.0448095
0.0425398
0.0403666
0.0381468
0.0359031
0.0336626
0.0314281
0.0291967
0.0269675
0.0247412
0.0225184
0.0202993
0.0180843
0.0158738
0.0136678
0.0114663
0.00927216
0.00708215
0.00489716
0.0470104
0.044544
0.0424757
0.0404874
0.038454
0.0363976
0.0343425
0.0322913
0.0302414
0.0281922
0.0261445
0.0240987
0.0220554
0.020015
0.0179778
0.0159442
0.0139144
0.0118896
0.009869
0.00785315
0.0465942
0.0443461
0.0424558
0.0406318
0.038765
0.0368764
0.0349876
0.0331011
0.0312145
0.0293276
0.0274409
0.0255552
0.0236709
0.0217886
0.0199085
0.0180313
0.0161572
0.014287
0.0124207
0.0105586
0.0462536
0.0442017
0.042469
0.0407911
0.0390733
0.0373351
0.0355956
0.0338571
0.0321175
0.0303767
0.0286354
0.0268943
0.0251538
0.0234146
0.021677
0.0199416
0.0182088
0.0164792
0.014753
0.0130308
0.0459739
0.0440988
0.0425058
0.040958
0.0393735
0.0377701
0.0361647
0.0345592
0.0329519
0.0313429
0.0297328
0.0281223
0.0265119
0.0249022
0.0232937
0.0216868
0.0200822
0.0184803
0.0168815
0.0152863
0.0457431
0.0440271
0.042558
0.0411261
0.0396611
0.0381786
0.0366936
0.0352076
0.0337195
0.0322293
0.0307375
0.029245
0.0277522
0.0262597
0.024768
0.0232776
0.0217892
0.0203031
0.0188199
0.0173401
0.0455507
0.043978
0.0426191
0.0412905
0.0399324
0.0385584
0.0371814
0.035803
0.0344221
0.0330388
0.0316538
0.0302677
0.0288811
0.0274946
0.0261086
0.0247237
0.0233405
0.0219594
0.020581
0.0192057
0.0453883
0.0439445
0.0426835
0.0414471
0.0401846
0.0389078
0.0376278
0.036346
0.0350615
0.0337746
0.0324857
0.0311956
0.0299049
0.028614
0.0273236
0.026034
0.0247459
0.0234599
0.0221763
0.0208957
0.0452489
0.0439209
0.042747
0.0415927
0.0404156
0.039226
0.0380329
0.0368377
0.0356399
0.0344395
0.0332372
0.0320335
0.0308291
0.0296245
0.0284202
0.0272166
0.0260145
0.0248142
0.0236162
0.0224212
0.0451269
0.0439026
0.0428061
0.0417249
0.0406242
0.0395124
0.0383971
0.0372795
0.0361592
0.0350365
0.0339118
0.0327858
0.031659
0.030532
0.0294051
0.028279
0.0271542
0.0260312
0.0249103
0.0237922
0.0450183
0.0438865
0.0428586
0.0418424
0.0408096
0.0397671
0.0387211
0.0376728
0.0366219
0.0355685
0.0345133
0.0334569
0.0323996
0.031342
0.0302846
0.029228
0.0281726
0.027119
0.0260672
0.0250182
0.04492
0.0438701
0.0429028
0.041944
0.0409714
0.0399903
0.0390059
0.0380191
0.0370298
0.0360382
0.0350448
0.0340502
0.0330549
0.0320592
0.0310638
0.0300691
0.0290755
0.0280834
0.027094
0.026107
0.0448301
0.0438523
0.0429381
0.0420298
0.0411101
0.0401831
0.039253
0.0383205
0.0373855
0.0364485
0.0355098
0.03457
0.0336295
0.0326888
0.0317483
0.0308085
0.0298699
0.0289329
0.027998
0.0270656
0.0447476
0.0438324
0.0429643
0.0420999
0.0412261
0.0403463
0.0394634
0.0385782
0.0376908
0.0368015
0.0359107
0.0350188
0.0341264
0.0332338
0.0323415
0.0314499
0.0305595
0.0296707
0.028784
0.0278997
0.0446727
0.0438108
0.042982
0.042155
0.0413207
0.0404812
0.0396389
0.0387945
0.037948
0.0370998
0.0362503
0.0353999
0.034549
0.0336981
0.0328475
0.0319977
0.0311491
0.0303021
0.0294571
0.0286146
0.0446054
0.0437877
0.0429914
0.0421957
0.0413941
0.0405883
0.0397801
0.0389698
0.0381578
0.0373442
0.0365296
0.0357143
0.0348986
0.034083
0.0332679
0.0324536
0.0316406
0.0308291
0.0300197
0.0292127
0.044548
0.0437653
0.042995
0.0422242
0.0414489
0.0406704
0.0398896
0.039107
0.038323
0.0375377
0.0367516
0.035965
0.0351783
0.0343918
0.0336058
0.0328208
0.032037
0.0312549
0.0304748
0.0296971
0.0444998
0.0437427
0.0429912
0.0422386
0.0414828
0.0407245
0.0399644
0.0392029
0.0384402
0.0376767
0.0369127
0.0361484
0.0353842
0.0346205
0.0338576
0.0330957
0.0323352
0.0315764
0.0308197
0.0300654
0.0444675
0.0437266
0.0429871
0.0422463
0.0415034
0.0407586
0.0400125
0.0392654
0.0385175
0.0377691
0.0370205
0.0362719
0.0355236
0.0347759
0.0340292
0.0332836
0.0325396
0.0317973
0.031057
0.0303191
0.0444448
0.0437083
0.0429714
0.0422336
0.0414946
0.0407548
0.0400144
0.0392737
0.0385329
0.0377923
0.0370521
0.0363125
0.0355737
0.0348361
0.0340998
0.033365
0.032632
0.0319011
0.0311723
0.030446
0.199162
0.200545
0.203813
0.208342
0.214097
0.220846
0.228444
0.236694
0.245381
0.254237
0.262927
0.271036
0.278057
0.283377
0.286273
0.285931
0.281458
0.271949
0.256475
0.233875
0.196585
0.197818
0.199136
0.202238
0.206532
0.211954
0.218268
0.225307
0.232855
0.240673
0.248465
0.255875
0.26247
0.267734
0.271067
0.271791
0.269169
0.262442
0.250867
0.233782
0.210684
0.177006
0.196349
0.197602
0.200531
0.204573
0.209638
0.215493
0.22195
0.22878
0.235727
0.242483
0.248681
0.253892
0.257618
0.259301
0.258335
0.254092
0.245962
0.233393
0.215986
0.193825
0.163254
0.194742
0.19592
0.198657
0.202421
0.207101
0.212459
0.218292
0.224358
0.230386
0.236057
0.241001
0.244797
0.246971
0.247013
0.244391
0.238589
0.22914
0.215674
0.197991
0.176348
0.148044
0.192993
0.194089
0.196622
0.200093
0.204368
0.209207
0.214395
0.219677
0.224774
0.22936
0.23307
0.235497
0.236201
0.234726
0.230625
0.223489
0.212989
0.198915
0.181217
0.160239
0.134174
0.191098
0.192108
0.194429
0.197594
0.201449
0.205756
0.210287
0.214782
0.218955
0.222483
0.225012
0.226159
0.225527
0.222722
0.217383
0.209207
0.197986
0.183641
0.166244
0.146177
0.12225
0.189055
0.189975
0.192076
0.194922
0.198347
0.202111
0.20598
0.20969
0.212956
0.215464
0.216876
0.216842
0.215015
0.211066
0.204718
0.195764
0.184102
0.169751
0.152866
0.133834
0.111893
0.186859
0.187686
0.18956
0.192079
0.195064
0.19828
0.201485
0.204421
0.206805
0.208338
0.208707
0.207599
0.204719
0.199805
0.192656
0.183152
0.171275
0.157117
0.140885
0.122951
0.102862
0.184511
0.18524
0.186883
0.189068
0.191608
0.194272
0.196822
0.199
0.200537
0.20115
0.200558
0.198489
0.194699
0.188991
0.181235
0.171383
0.15948
0.14567
0.130188
0.113384
0.0950203
0.182008
0.182638
0.184045
0.185892
0.187986
0.190103
0.192009
0.193455
0.194186
0.193945
0.192481
0.189566
0.185008
0.17867
0.170482
0.160455
0.148682
0.135338
0.120668
0.104998
0.0882315
0.179352
0.179881
0.181051
0.182557
0.184209
0.185788
0.187068
0.187814
0.18779
0.186764
0.184522
0.180877
0.175689
0.168872
0.160408
0.150353
0.138833
0.126039
0.112216
0.0976575
0.082363
0.176543
0.176971
0.177904
0.179072
0.180287
0.181342
0.182022
0.182107
0.181383
0.179649
0.176724
0.172465
0.166775
0.159617
0.151013
0.14105
0.129878
0.117691
0.104723
0.0912396
0.0772957
0.173586
0.173912
0.174611
0.175446
0.176235
0.176785
0.176894
0.176363
0.175001
0.172635
0.169123
0.164361
0.158291
0.150914
0.142284
0.132513
0.121758
0.110212
0.0980919
0.0856329
0.0729241
0.170484
0.17071
0.171179
0.171689
0.172068
0.172137
0.17171
0.170611
0.168674
0.165758
0.161753
0.156591
0.150251
0.142762
0.134204
0.124701
0.114412
0.103523
0.0922289
0.0807381
0.0691554
0.167245
0.167372
0.167619
0.167814
0.167801
0.167416
0.166494
0.16488
0.162435
0.159047
0.15464
0.149176
0.142663
0.135156
0.126748
0.11757
0.10778
0.0975478
0.0870496
0.0764666
0.0659083
0.163876
0.163907
0.16394
0.163835
0.163452
0.162645
0.161271
0.159196
0.156309
0.152528
0.147804
0.142127
0.135529
0.12808
0.119885
0.111076
0.101801
0.0922165
0.0824769
0.0727399
0.0631119
0.160386
0.160324
0.160155
0.159767
0.159039
0.157845
0.156063
0.153584
0.150323
0.146223
0.141261
0.135451
0.128843
0.121517
0.113584
0.105171
0.0964174
0.0874628
0.0784411
0.0694889
0.0607048
0.156786
0.156637
0.156278
0.155626
0.154581
0.153037
0.150894
0.148068
0.144497
0.140149
0.135023
0.129151
0.122595
0.115445
0.10781
0.0998109
0.0915749
0.0832262
0.0748796
0.0666527
0.0586338
0.153089
0.152859
0.152324
0.151429
0.150097
0.148242
0.145786
0.142668
0.13885
0.134319
0.129095
0.123222
0.116773
0.109839
0.102527
0.0949495
0.0872215
0.0794512
0.0717363
0.0641779
0.0568525
0.14931
0.149004
0.148309
0.147194
0.145606
0.14348
0.140759
0.137404
0.133396
0.128744
0.123479
0.117658
0.111358
0.104672
0.0976991
0.0905445
0.0833091
0.0760873
0.0689612
0.0620174
0.0553204
0.145463
0.145089
0.144249
0.142939
0.141128
0.13877
0.135831
0.132291
0.128149
0.123429
0.118174
0.11245
0.106334
0.0999167
0.0932924
0.0865549
0.0797935
0.0730888
0.0665096
0.0601301
0.0540027
0.141566
0.14113
0.140164
0.138684
0.136682
0.134133
0.13102
0.127343
0.123117
0.118377
0.113177
0.107584
0.101679
0.0955463
0.0892728
0.0829427
0.0766337
0.0704144
0.0643419
0.0584795
0.0528684
0.137637
0.137147
0.136072
0.134447
0.132287
0.129584
0.126341
0.122572
0.118307
0.113589
0.10848
0.103049
0.0973734
0.0915334
0.0856083
0.0796724
0.0737926
0.0680272
0.0624229
0.0570339
0.0518909
0.133694
0.133159
0.131992
0.130248
0.12796
0.125142
0.121808
0.117988
0.113723
0.109064
0.104076
0.0988283
0.0933955
0.0878518
0.0822686
0.076711
0.0712366
0.065894
0.0607216
0.0557653
0.0510469
0.129758
0.129184
0.127944
0.126105
0.123721
0.12082
0.117433
0.113599
0.109368
0.104798
0.0999551
0.0949071
0.0897249
0.0844765
0.0792254
0.0740287
0.0689352
0.0639854
0.0592106
0.0546495
0.0503161
0.125849
0.125245
0.123948
0.122038
0.119585