/*--------------------------------*- C++ -*----------------------------------*\
  =========                 |
  \\      /  F ield         | OpenFOAM: The Open Source CFD Toolbox
   \\    /   O peration     | Website:  https://openfoam.org
    \\  /    A nd           | Version:  7
     \\/     M anipulation  |
\*---------------------------------------------------------------------------*/
FoamFile
{
    version     2.0;
    format      ascii;
    class       volScalarField;
    location    "40";
    object      p;
}
// * * * * * * * * * * * * * * * * * * * * * * * * * * * * * * * * * * * * * //

dimensions      [0 2 -2 0 0 0 0];

internalField   nonuniform List<scalar> 
6386
(
-0.181551
-0.18348
-0.18439
-0.185128
-0.185764
-0.186325
-0.186833
-0.187296
-0.18771
-0.188087
-0.181816
-0.183724
-0.184624
-0.185353
-0.185982
-0.186537
-0.187041
-0.1875
-0.187913
-0.188278
-0.182268
-0.184135
-0.185011
-0.185718
-0.186327
-0.186863
-0.187348
-0.18779
-0.188182
-0.188505
-0.182901
-0.184706
-0.185546
-0.18622
-0.186795
-0.187299
-0.187749
-0.188157
-0.18851
-0.188751
-0.183707
-0.18543
-0.186223
-0.186849
-0.187378
-0.187833
-0.188233
-0.188589
-0.188884
-0.188998
-0.184674
-0.186299
-0.187032
-0.187598
-0.188064
-0.188457
-0.188788
-0.18907
-0.189292
-0.189215
-0.18579
-0.187303
-0.187964
-0.188455
-0.188845
-0.189157
-0.1894
-0.189585
-0.189721
-0.189366
-0.187044
-0.188431
-0.189008
-0.189411
-0.189706
-0.189922
-0.190055
-0.190116
-0.190159
-0.189403
-0.188424
-0.189675
-0.190155
-0.190454
-0.190638
-0.190739
-0.190741
-0.190643
-0.190605
-0.189251
-0.189918
-0.191025
-0.191396
-0.191574
-0.19163
-0.191596
-0.191447
-0.191152
-0.191079
-0.188821
-0.19152
-0.192474
-0.192723
-0.192763
-0.192671
-0.192485
-0.192164
-0.191618
-0.191602
-0.188169
-0.193223
-0.194019
-0.19413
-0.194014
-0.193755
-0.193397
-0.192886
-0.192019
-0.191921
-0.187517
-0.195028
-0.195657
-0.195615
-0.195322
-0.194875
-0.194326
-0.193616
-0.192544
-0.192076
-0.186595
-0.196937
-0.197392
-0.197178
-0.196685
-0.196028
-0.19527
-0.194332
-0.193043
-0.192262
-0.185377
-0.19896
-0.19923
-0.198823
-0.198105
-0.197214
-0.196227
-0.195047
-0.193526
-0.192447
-0.183963
-0.201185
-0.200559
-0.199587
-0.198434
-0.197196
-0.195762
-0.194034
-0.192557
-0.182521
-0.203272
-0.202398
-0.201141
-0.199695
-0.198182
-0.19647
-0.194599
-0.192477
-0.181228
-0.205516
-0.204362
-0.202785
-0.201011
-0.199193
-0.197171
-0.195259
-0.192017
-0.180193
-0.206479
-0.20454
-0.202404
-0.20025
-0.197883
-0.196047
-0.191083
-0.180167
-0.208778
-0.20644
-0.203903
-0.201382
-0.19864
-0.19692
-0.190055
-0.184466
-0.208522
-0.205551
-0.202631
-0.199482
-0.197683
-0.189578
-0.195652
-0.207395
-0.204042
-0.200461
-0.19821
-0.189822
-0.194772
-0.209491
-0.205666
-0.201622
-0.1986
-0.190334
-0.192007
-0.207548
-0.202977
-0.199017
-0.190745
-0.189297
-0.204523
-0.199507
-0.190927
-0.186567
-0.200054
-0.190801
-0.183921
-0.190344
-0.181292
-0.178601
-0.187538
-0.176625
-0.188254
-0.179215
-0.197936
-0.188627
-0.181738
-0.202447
-0.197338
-0.188666
-0.184272
-0.205533
-0.200872
-0.196796
-0.188395
-0.186888
-0.207522
-0.203634
-0.199486
-0.196328
-0.187893
-0.189482
-0.205416
-0.201991
-0.198293
-0.195885
-0.187294
-0.19213
-0.206571
-0.203562
-0.200559
-0.197281
-0.195306
-0.186973
-0.192889
-0.206838
-0.204489
-0.201906
-0.199291
-0.196407
-0.194495
-0.187378
-0.181555
-0.204549
-0.202595
-0.200402
-0.198145
-0.195624
-0.193584
-0.188352
-0.177202
-0.203611
-0.202445
-0.200851
-0.199013
-0.197082
-0.194895
-0.192771
-0.189251
-0.177203
-0.201393
-0.200515
-0.199229
-0.197711
-0.196076
-0.194191
-0.192102
-0.189694
-0.178226
-0.199227
-0.199346
-0.198716
-0.197708
-0.196476
-0.195111
-0.193498
-0.191546
-0.18978
-0.179525
-0.197133
-0.197446
-0.197031
-0.196272
-0.195298
-0.194178
-0.192817
-0.191069
-0.1897
-0.180995
-0.195181
-0.195674
-0.195449
-0.194912
-0.194169
-0.193276
-0.192156
-0.19064
-0.189572
-0.182459
-0.193357
-0.194017
-0.193961
-0.193622
-0.193088
-0.192406
-0.191518
-0.190221
-0.189465
-0.183756
-0.191649
-0.192468
-0.192564
-0.1924
-0.192055
-0.191567
-0.190882
-0.189812
-0.189406
-0.184783
-0.190053
-0.191024
-0.191256
-0.191249
-0.191073
-0.190762
-0.190274
-0.189522
-0.189231
-0.185568
-0.188568
-0.189686
-0.190039
-0.190171
-0.190147
-0.189995
-0.189688
-0.189195
-0.188876
-0.186368
-0.187199
-0.188455
-0.188917
-0.189172
-0.189283
-0.189273
-0.18913
-0.188847
-0.188585
-0.186983
-0.185951
-0.187339
-0.187898
-0.18826
-0.188488
-0.188604
-0.188605
-0.188497
-0.188338
-0.187346
-0.184834
-0.186344
-0.186988
-0.187443
-0.187772
-0.187997
-0.188122
-0.188158
-0.188112
-0.187544
-0.183859
-0.18548
-0.186197
-0.186731
-0.187145
-0.187462
-0.187692
-0.187846
-0.18791
-0.187645
-0.183037
-0.184754
-0.185533
-0.186133
-0.186618
-0.187011
-0.187327
-0.187575
-0.18774
-0.187695
-0.182379
-0.184177
-0.185006
-0.185659
-0.1862
-0.186654
-0.187039
-0.187362
-0.187611
-0.187727
-0.181894
-0.183756
-0.184623
-0.185316
-0.1859
-0.1864
-0.186838
-0.187219
-0.187535
-0.187767
-0.181591
-0.183496
-0.18439
-0.18511
-0.185724
-0.186258
-0.186733
-0.187156
-0.187523
-0.187834
-0.181476
-0.183404
-0.184312
-0.185047
-0.185678
-0.186232
-0.186731
-0.187181
-0.18758
-0.187939
-0.188528
-0.188834
-0.189142
-0.189446
-0.189741
-0.190023
-0.190286
-0.19052
-0.190715
-0.19086
-0.190944
-0.190952
-0.190873
-0.190692
-0.190395
-0.189972
-0.189404
-0.188672
-0.187754
-0.186625
-0.185256
-0.183617
-0.181673
-0.179355
-0.176611
-0.173376
-0.169578
-0.165163
-0.160046
-0.154206
-0.147502
-0.139989
-0.131356
-0.121815
-0.110792
-0.0987427
-0.0851941
-0.069966
-0.0553114
-0.0355915
-0.0251185
0.00246486
-0.188767
-0.189065
-0.189373
-0.189678
-0.189972
-0.190251
-0.190506
-0.190726
-0.190898
-0.191009
-0.191044
-0.190989
-0.190828
-0.190543
-0.19012
-0.189551
-0.188818
-0.187903
-0.186791
-0.185465
-0.183906
-0.182093
-0.180041
-0.177666
-0.17494
-0.171815
-0.168235
-0.164151
-0.159478
-0.154178
-0.148085
-0.141208
-0.133182
-0.124155
-0.113475
-0.101567
-0.0878881
-0.0723188
-0.0569585
-0.0365219
-0.0251559
0.00326608
-0.189082
-0.189356
-0.189658
-0.189962
-0.190254
-0.190529
-0.190775
-0.19098
-0.19113
-0.191207
-0.191195
-0.191076
-0.190834
-0.190447
-0.189897
-0.189186
-0.188289
-0.187194
-0.185891
-0.184367
-0.182619
-0.180634
-0.178485
-0.176055
-0.173347
-0.170334
-0.166971
-0.163217
-0.158984
-0.154221
-0.14873
-0.142482
-0.135049
-0.126524
-0.116164
-0.104375
-0.0905663
-0.0746596
-0.0586022
-0.03749
-0.0252809
0.00377586
-0.189463
-0.1897
-0.189989
-0.190291
-0.190579
-0.190849
-0.191088
-0.191279
-0.191406
-0.191451
-0.191394
-0.191213
-0.19089
-0.190403
-0.189729
-0.18888
-0.187822
-0.186551
-0.18506
-0.183342
-0.181406
-0.179324
-0.17702
-0.174533
-0.171844
-0.168942
-0.165795
-0.162367
-0.158566
-0.15433
-0.149427
-0.143792
-0.136933
-0.128891
-0.118826
-0.10717
-0.0931965
-0.0769569
-0.0602197
-0.0384739
-0.025497
0.00397453
-0.189898
-0.190083
-0.190356
-0.190654
-0.190938
-0.191205
-0.191436
-0.191615
-0.191723
-0.191737
-0.191636
-0.191399
-0.190999
-0.190409
-0.189606
-0.188633
-0.187422
-0.185978
-0.184304
-0.182394
-0.180256
-0.178055
-0.175649
-0.173109
-0.17044
-0.167647
-0.16471
-0.1616
-0.15822
-0.154497
-0.150164
-0.145122
-0.138812
-0.131231
-0.121424
-0.10989
-0.0957478
-0.0791827
-0.0618001
-0.0394449
-0.0256934
0.00399653
-0.190373
-0.190491
-0.190745
-0.191041
-0.191321
-0.191584
-0.191811
-0.19198
-0.192069
-0.192056
-0.191916
-0.191624
-0.191156
-0.190484
-0.189518
-0.188441
-0.187085
-0.185478
-0.183629
-0.181527
-0.179155
-0.176887
-0.174381
-0.171788
-0.169138
-0.166451
-0.163718
-0.160915
-0.157942
-0.154712
-0.150926
-0.146452
-0.140663
-0.133514
-0.123921
-0.11252
-0.0981949
-0.0813121
-0.0633324
-0.040416
-0.0259033
0.00395251
-0.190878
-0.190909
-0.191143
-0.191437
-0.191714
-0.191976
-0.1922
-0.192361
-0.192437
-0.1924
-0.192225
-0.191883
-0.191349
-0.190603
-0.189672
-0.188306
-0.186804
-0.185046
-0.183032
-0.180746
-0.178407
-0.175834
-0.17322
-0.170575
-0.167942
-0.165357
-0.162818
-0.16031
-0.157723
-0.154966
-0.151697
-0.147763
-0.142462
-0.135719
-0.126296
-0.115033
-0.100512
-0.083324
-0.064745
-0.0414037
-0.0261552
0.00384007
-0.191407
-0.191317
-0.191532
-0.191828
-0.192104
-0.192367
-0.19259
-0.192747
-0.192812
-0.192756
-0.192551
-0.192166
-0.191574
-0.190751
-0.189693
-0.188333
-0.186574
-0.184666
-0.182504
-0.179998
-0.177548
-0.17488
-0.172166
-0.16947
-0.166852
-0.164363
-0.162006
-0.159777
-0.157556
-0.155245
-0.152463
-0.149035
-0.144189
-0.137825
-0.128795
-0.11741
-0.102674
-0.0852068
-0.0660819
-0.042332
-0.026445
0.00364721
-0.191988
-0.191699
-0.191898
-0.192201
-0.192477
-0.192742
-0.192967
-0.193123
-0.193181
-0.193112
-0.192882
-0.192462
-0.191819
-0.190928
-0.189772
-0.188309
-0.186551
-0.184336
-0.182022
-0.179277
-0.176824
-0.174031
-0.17122
-0.168474
-0.165867
-0.163466
-0.161279
-0.159311
-0.157431
-0.155538
-0.153209
-0.150253
-0.145824
-0.139794
-0.130917
-0.119602
-0.104691
-0.0869451
-0.0673322
-0.0431991
-0.026757
0.00337493
-0.192672
-0.192037
-0.192227
-0.192544
-0.192817
-0.193086
-0.193316
-0.193475
-0.193531
-0.193452
-0.193205
-0.192756
-0.192072
-0.191123
-0.189889
-0.188334
-0.186462
-0.184281
-0.181648
-0.179128
-0.176226
-0.173287
-0.17038
-0.167585
-0.164982
-0.162662
-0.160631
-0.158902
-0.157338
-0.155832
-0.153921
-0.151402
-0.147343
-0.141579
-0.132892
-0.121627
-0.106536
-0.0885293
-0.0684834
-0.0440086
-0.0270794
0.00302944
-0.193214
-0.192393
-0.192517
-0.192847
-0.193111
-0.193383
-0.193621
-0.193785
-0.193844
-0.193762
-0.193505
-0.193036
-0.192319
-0.191322
-0.190024
-0.188393
-0.186426
-0.184131
-0.181508
-0.178733
-0.175716
-0.172643
-0.169644
-0.166799
-0.164197
-0.161947
-0.160055
-0.158545
-0.157267
-0.156115
-0.154583
-0.152456
-0.148746
-0.14325
-0.134693
-0.123466
-0.108204
-0.089956
-0.0695324
-0.0447583
-0.0274031
0.00261811
-0.193552
-0.192808
-0.192755
-0.193076
-0.193359
-0.193629
-0.193871
-0.194042
-0.194105
-0.194026
-0.193766
-0.193285
-0.192547
-0.191511
-0.190164
-0.188469
-0.186423
-0.184037
-0.18134
-0.178428
-0.175297
-0.172091
-0.169003
-0.166108
-0.163509
-0.16132
-0.159546
-0.158229
-0.157209
-0.156374
-0.155186
-0.153414
-0.149995
-0.144759
-0.136309
-0.125108
-0.109695
-0.0912235
-0.0704784
-0.0454465
-0.0277201
0.00214883
-0.193925
-0.193203
-0.192937
-0.193251
-0.193538
-0.193799
-0.194045
-0.194224
-0.194297
-0.194226
-0.193969
-0.193487
-0.192737
-0.191682
-0.190296
-0.18855
-0.186441
-0.183981
-0.181207
-0.178227
-0.174976
-0.171634
-0.168463
-0.165522
-0.162906
-0.160758
-0.159091
-0.157946
-0.157154
-0.156601
-0.155718
-0.154261
-0.151071
-0.146096
-0.137738
-0.126551
-0.111008
-0.0923318
-0.0713218
-0.0460738
-0.0280236
0.00162972
-0.19432
-0.193586
-0.193068
-0.193362
-0.193638
-0.193883
-0.194129
-0.194318
-0.194402
-0.194344
-0.1941
-0.193624
-0.192875
-0.191811
-0.190402
-0.188622
-0.186465
-0.183944
-0.181105
-0.178142
-0.174674
-0.171248
-0.168007
-0.165019
-0.162391
-0.16027
-0.15869
-0.157689
-0.157095
-0.156788
-0.15617
-0.154985
-0.152024
-0.147251
-0.138973
-0.12779
-0.112141
-0.0932823
-0.0720633
-0.0466417
-0.0283077
0.00106875
-0.194719
-0.193969
-0.19315
-0.193403
-0.19365
-0.193865
-0.194107
-0.194304
-0.194403
-0.194363
-0.194137
-0.193679
-0.192942
-0.191882
-0.190466
-0.188669
-0.18648
-0.183913
-0.181012
-0.178001
-0.174691
-0.170886
-0.16763
-0.1646
-0.161953
-0.159848
-0.158335
-0.157451
-0.157023
-0.156926
-0.156533
-0.155574
-0.152803
-0.148216
-0.14001
-0.128825
-0.113097
-0.0940768
-0.0727032
-0.0471518
-0.0285672
0.000473598
-0.195118
-0.194331
-0.193171
-0.193362
-0.193553
-0.193723
-0.193957
-0.194162
-0.194278
-0.194262
-0.194064
-0.193633
-0.192919
-0.191877
-0.190471
-0.188672
-0.18647
-0.183874
-0.180911
-0.17769
-0.174334
-0.171063
-0.167341
-0.164259
-0.161584
-0.159483
-0.158018
-0.157225
-0.156932
-0.157008
-0.156801
-0.156034
-0.15344
-0.148989
-0.140847
-0.129655
-0.113874
-0.0947168
-0.073241
-0.0476048
-0.0287975
-0.000148278
-0.195463
-0.194566
-0.193088
-0.193218
-0.193326
-0.193439
-0.193664
-0.19388
-0.194017
-0.19403
-0.193866
-0.19347
-0.192791
-0.19178
-0.190397
-0.188614
-0.186417
-0.183814
-0.180826
-0.177516
-0.174112
-0.170662
-0.167287
-0.163995
-0.161277
-0.159165
-0.157732
-0.157003
-0.156814
-0.157027
-0.156967
-0.156376
-0.153915
-0.149567
-0.141483
-0.130281
-0.114478
-0.0952081
-0.0736819
-0.0480042
-0.0289995
-0.000790183
-0.195682
-0.194554
-0.192873
-0.192967
-0.192956
-0.193002
-0.193217
-0.193444
-0.193606
-0.193653
-0.193531
-0.193181
-0.192548
-0.191581
-0.190238
-0.188487
-0.186312
-0.183718
-0.180728
-0.177383
-0.173943
-0.170411
-0.166986
-0.163791
-0.161018
-0.15888
-0.157468
-0.156772
-0.156657
-0.156971
-0.15702
-0.156553
-0.154215
-0.14995
-0.141928
-0.13072
-0.11493
-0.0955732
-0.0740485
-0.0483628
-0.0291839
-0.0014489
-0.196555
-0.194251
-0.192469
-0.192516
-0.192341
-0.19231
-0.192517
-0.192762
-0.192958
-0.193051
-0.192985
-0.192698
-0.192132
-0.191233
-0.189957
-0.188268
-0.186148
-0.183597
-0.180628
-0.177222
-0.173784
-0.170225
-0.166744
-0.163571
-0.160783
-0.158615
-0.157212
-0.156517
-0.156455
-0.156834
-0.156957
-0.156581
-0.154341
-0.150145
-0.142193
-0.130987
-0.115246
-0.095826
-0.0743471
-0.0486884
-0.0293432
-0.00212666
-0.196315
-0.191852
-0.191078
-0.191376
-0.191139
-0.191129
-0.191394
-0.191707
-0.191968
-0.192128
-0.192131
-0.191917
-0.191427
-0.190605
-0.189406
-0.187795
-0.185753
-0.183283
-0.180405
-0.176863
-0.173589
-0.170026
-0.166552
-0.163328
-0.1606
-0.158451
-0.156952
-0.156247
-0.156248
-0.156664
-0.156842
-0.156511
-0.154323
-0.150141
-0.142228
-0.130985
-0.115289
-0.0958295
-0.0744137
-0.048899
-0.0293647
-0.00281763
-0.180998
-0.183143
-0.18802
-0.189654
-0.189711
-0.189834
-0.190203
-0.190607
-0.190939
-0.191156
-0.191213
-0.19105
-0.190608
-0.18983
-0.188669
-0.18709
-0.185076
-0.182632
-0.179798
-0.176637
-0.173076
-0.169372
-0.165899
-0.162712
-0.159978
-0.157944
-0.156581
-0.156066
-0.156018
-0.156481
-0.156703
-0.156358
-0.154157
-0.149859
-0.141891
-0.130493
-0.114804
-0.0953347
-0.0740114
-0.0489227
-0.0291196
-0.00371112
-0.180214
-0.180495
-0.184964
-0.186777
-0.18687
-0.186982
-0.187437
-0.187976
-0.188422
-0.188726
-0.188853
-0.188754
-0.188369
-0.187645
-0.186535
-0.185009
-0.183049
-0.180658
-0.17786
-0.174672
-0.171175
-0.167901
-0.164635
-0.161622
-0.159044
-0.157124
-0.155862
-0.155382
-0.155376
-0.155789
-0.15591
-0.155393
-0.153029
-0.148499
-0.140432
-0.128894
-0.113335
-0.0940226
-0.0730302
-0.0486189
-0.0287259
-0.00468175
-0.177331
-0.177335
-0.180285
-0.182019
-0.182486
-0.182836
-0.183458
-0.184166
-0.18477
-0.185205
-0.185448
-0.185458
-0.185181
-0.184566
-0.183571
-0.182168
-0.180342
-0.1781
-0.175468
-0.172499
-0.169317
-0.166186
-0.163089
-0.160268
-0.157866
-0.156068
-0.15489
-0.154418
-0.154375
-0.154656
-0.154588
-0.153808
-0.151204
-0.146397
-0.138221
-0.126598
-0.11124
-0.0922353
-0.0716873
-0.048105
-0.0282645
-0.00553729
-0.171967
-0.172736
-0.174345
-0.175695
-0.176543
-0.177294
-0.178172
-0.179083
-0.179882
-0.180502
-0.180919
-0.181099
-0.180993
-0.180553
-0.179741
-0.178532
-0.176914
-0.174897
-0.172509
-0.169817
-0.166925
-0.164015
-0.161167
-0.158564
-0.156343
-0.154668
-0.15355
-0.15305
-0.152908
-0.152993
-0.152673
-0.151572
-0.14869
-0.1436
-0.13533
-0.123697
-0.108609
-0.0900581
-0.0700432
-0.0474203
-0.0277478
-0.0062706
-0.164121
-0.166265
-0.167306
-0.168244
-0.169308
-0.17046
-0.171645
-0.172783
-0.173792
-0.174626
-0.175255
-0.175648
-0.175759
-0.175546
-0.174972
-0.174015
-0.172666
-0.170936
-0.168852
-0.166481
-0.163912
-0.161293
-0.158726
-0.15637
-0.154343
-0.152786
-0.151703
-0.15114
-0.150854
-0.150692
-0.150074
-0.148617
-0.145437
-0.140082
-0.131753
-0.120203
-0.105465
-0.0875087
-0.0681199
-0.0465553
-0.0271768
-0.00686554
-0.154469
-0.158072
-0.159192
-0.159939
-0.16113
-0.16262
-0.164125
-0.165508
-0.166731
-0.167778
-0.168629
-0.16925
-0.169599
-0.169636
-0.16933
-0.16866
-0.167618
-0.166214
-0.164474
-0.16246
-0.160246
-0.157959
-0.155695
-0.1536
-0.151768
-0.150326
-0.149258
-0.148602
-0.148135
-0.147692
-0.146748
-0.144925
-0.141453
-0.135876
-0.127536
-0.116171
-0.101865
-0.0846285
-0.0659552
-0.0455109
-0.0265535
-0.00731534
-0.144028
-0.148694
-0.150224
-0.151055
-0.152384
-0.154142
-0.15594
-0.157572
-0.159006
-0.160257
-0.161319
-0.162162
-0.162745
-0.163034
-0.162999
-0.162623
-0.161898
-0.160833
-0.159451
-0.157803
-0.155956
-0.154011
-0.152058
-0.15022
-0.148575
-0.147231
-0.146175
-0.145407
-0.144738
-0.144
-0.142727
-0.140552
-0.136813
-0.131074
-0.122784
-0.111701
-0.0979046
-0.0814806
-0.0635994
-0.0442997
-0.0258794
-0.00762211
-0.133366
-0.138687
-0.140733
-0.141843
-0.14336
-0.145338
-0.147387
-0.149253
-0.150892
-0.152336
-0.153594
-0.154644
-0.155448
-0.155976
-0.156199
-0.156106
-0.155686
-0.15495
-0.153914
-0.152622
-0.151128
-0.149516
-0.147861
-0.146268
-0.144799
-0.143543
-0.142483
-0.141597
-0.140723
-0.139697
-0.138107
-0.135617
-0.131651
-0.125816
-0.117637
-0.106917
-0.0936924
-0.0781387
-0.0611063
-0.0429419
-0.0251553
-0.0077949
-0.122819
-0.128503
-0.131031
-0.132501
-0.134249
-0.136422
-0.13868
-0.140758
-0.142595
-0.144223
-0.145664
-0.146904
-0.147914
-0.148662
-0.149126
-0.149294
-0.149158
-0.148727
-0.148012
-0.14705
-0.145883
-0.144581
-0.143202
-0.141834
-0.140524
-0.139342
-0.138266
-0.13727
-0.136201
-0.134909
-0.133034
-0.130274
-0.126131
-0.120264
-0.11225
-0.101951
-0.0893405
-0.0746786
-0.0585281
-0.0414634
-0.0243824
-0.00784827
-0.112602
-0.118431
-0.121349
-0.123181
-0.125174
-0.127529
-0.129964
-0.13223
-0.134252
-0.136056
-0.137669
-0.139087
-0.140285
-0.141237
-0.141922
-0.14233
-0.142453
-0.142299
-0.141876
-0.141213
-0.140342
-0.139319
-0.13819
-0.137024
-0.135855
-0.134737
-0.133645
-0.132549
-0.131308
-0.129784
-0.127663
-0.124688
-0.120418
-0.114575
-0.10677
-0.0969242
-0.0849488
-0.0711693
-0.0559101
-0.0398923
-0.0235635
-0.00780027
-0.102796
-0.108631
-0.111839
-0.113994
-0.116221
-0.118743
-0.121332
-0.123762
-0.125952
-0.127921
-0.129696
-0.131281
-0.132654
-0.133794
-0.134681
-0.135308
-0.135667
-0.135763
-0.135603
-0.135208
-0.134602
-0.13383
-0.132924
-0.131939
-0.130897
-0.129838
-0.128733
-0.127556
-0.12617
-0.124455
-0.122135
-0.118997
-0.114651
-0.108876
-0.101312
-0.0919327
-0.080595
-0.0676669
-0.0532884
-0.038256
-0.0227037
-0.00766994
-0.0934318
-0.0991897
-0.102602
-0.105022
-0.107455
-0.110124
-0.112845
-0.115414
-0.117754
-0.119874
-0.1218
-0.123539
-0.125074
-0.126387
-0.127461
-0.128287
-0.12886
-0.129183
-0.129258
-0.129104
-0.128735
-0.128187
-0.127481
-0.12666
-0.125735
-0.124734
-0.123618
-0.122389
-0.120889
-0.119026
-0.116555
-0.113306
-0.10893
-0.10326
-0.0959587
-0.0870437
-0.0763323
-0.064212
-0.0506888
-0.036579
-0.0218097
-0.00747555
-0.0845336
-0.0901573
-0.0936988
-0.0963243
-0.0989261
-0.101717
-0.104545
-0.10723
-0.109699
-0.111953
-0.114017
-0.115895
-0.117578
-0.11905
-0.120294
-0.121302
-0.122069
-0.122596
-0.122884
-0.122945
-0.12279
-0.122443
-0.121918
-0.121247
-0.120432
-0.119494
-0.118394
-0.117119
-0.115538
-0.113569
-0.110995
-0.107681
-0.103317
-0.0977799
-0.090757
-0.0822967
-0.072192
-0.0608313
-0.0481289
-0.0348818
-0.0208893
-0.00723352
-0.0761091
-0.0815584
-0.0851685
-0.0879441
-0.0906743
-0.0935582
-0.0964681
-0.0992455
-0.101819
-0.104189
-0.106372
-0.108376
-0.110192
-0.111806
-0.113204
-0.114377
-0.115319
-0.11603
-0.116509
-0.116764
-0.1168
-0.116635
-0.116275
-0.115744
-0.115035
-0.114163
-0.113089
-0.111795
-0.110164
-0.108129
-0.105497
-0.102161
-0.0978452
-0.0924648
-0.08573
-0.0777111
-0.0681891
-0.0575401
-0.0456199
-0.0331811
-0.0199506
-0.00695779
-0.0681594
-0.0734062
-0.0770353
-0.0799116
-0.0827312
-0.0856778
-0.0886436
-0.0914878
-0.0941433
-0.0966062
-0.0988908
-0.101003
-0.102936
-0.104676
-0.10621
-0.10753
-0.108629
-0.109505
-0.110155
-0.110584
-0.110792
-0.110792
-0.110583
-0.110182
-0.109577
-0.108777
-0.10774
-0.106449
-0.104799
-0.102735
-0.100084
-0.0967637
-0.0925293
-0.0873247
-0.0808846
-0.073293
-0.0643287
-0.0543469
-0.0431688
-0.0314899
-0.0190015
-0.00665962
-0.0606815
-0.065706
-0.0693131
-0.0722471
-0.0751201
-0.0781002
-0.081096
-0.0839819
-0.0866954
-0.0892297
-0.0915954
-0.0937974
-0.0958284
-0.097677
-0.0993302
-0.10078
-0.102017
-0.10304
-0.103842
-0.104427
-0.104789
-0.104938
-0.104868
-0.104589
-0.104086
-0.103362
-0.102375
-0.101108
-0.099466
-0.0974059
-0.0947704
-0.0914986
-0.087373
-0.0823606
-0.0762196
-0.0690418
-0.0606105
-0.0512554
-0.0407804
-0.0298185
-0.0180495
-0.00634773
-0.0536672
-0.058456
-0.0620079
-0.0649627
-0.067857
-0.0708435
-0.0738446
-0.0767484
-0.0794966
-0.0820801
-0.0845063
-0.0867786
-0.0888898
-0.0908288
-0.092583
-0.0941436
-0.0955014
-0.0966526
-0.0975895
-0.0983121
-0.0988133
-0.0990974
-0.0991547
-0.0989915
-0.0985876
-0.0979442
-0.097017
-0.0957923
-0.0941829
-0.0921537
-0.089564
-0.0863691
-0.0823761
-0.0775694
-0.0717303
-0.0649534
-0.0570316
-0.0482673
-0.0384583
-0.0281754
-0.0171014
-0.00602876
-0.0471035
-0.0516492
-0.0551196
-0.058064
-0.0609517
-0.0639205
-0.0669042
-0.0698036
-0.0725643
-0.0751756
-0.0776419
-0.079965
-0.0821377
-0.0841489
-0.0859861
-0.0876399
-0.0891005
-0.0903625
-0.0914169
-0.0922612
-0.092886
-0.093292
-0.0934667
-0.093412
-0.0931056
-0.0925457
-0.0916885
-0.0905214
-0.0889646
-0.0869899
-0.0844716
-0.0813775
-0.0775369
-0.072947
-0.067411
-0.0610233
-0.0535889
-0.045383
-0.0362052
-0.0265671
-0.0161633
-0.00570765
-0.0409746
-0.0452746
-0.0486429
-0.051551
-0.0544084
-0.0573384
-0.0602849
-0.0631597
-0.0659126
-0.0685314
-0.0710183
-0.0733734
-0.0755891
-0.0776546
-0.079557
-0.0812865
-0.0828326
-0.0841884
-0.0853438
-0.0862943
-0.0870285
-0.0875441
-0.0878264
-0.087874
-0.0876628
-0.0871888
-0.0864093
-0.0853124
-0.0838252
-0.0819249
-0.0794993
-0.076526
-0.0728539
-0.0684894
-0.0632563
-0.0572466
-0.050279
-0.0426026
-0.0340234
-0.0249989
-0.0152403
-0.0053881
-0.0352622
-0.0393176
-0.0425687
-0.0454196
-0.0482269
-0.0511005
-0.0539925
-0.056825
-0.0595517
-0.0621597
-0.0646489
-0.0670181
-0.0692593
-0.0713616
-0.0733121
-0.0751004
-0.0767153
-0.0781488
-0.0793897
-0.0804317
-0.0812618
-0.0818754
-0.082256
-0.0823996
-0.0822811
-0.0818945
-0.0811986
-0.0801821
-0.0787782
-0.0769688
-0.0746533
-0.0718169
-0.0683259
-0.0641934
-0.0592616
-0.0536193
-0.0470989
-0.0399257
-0.0319152
-0.0234753
-0.0143368
-0.00507286
-0.0299468
-0.0337619
-0.0368849
-0.0396621
-0.0424034
-0.0452061
-0.0480293
-0.0508044
-0.0534889
-0.0560695
-0.0585445
-0.0609113
-0.0631616
-0.0652844
-0.0672667
-0.0690978
-0.0707657
-0.0722616
-0.0735732
-0.0746927
-0.0756061
-0.0763068
-0.0767769
-0.0770103
-0.0769813
-0.0766827
-0.0760747
-0.0751464
-0.0738369
-0.0721313
-0.0699398
-0.0672529
-0.0639526
-0.0600563
-0.0554232
-0.0501377
-0.0440463
-0.0373521
-0.029882
-0.0219997
-0.0134562
-0.00476405
-0.0250081
-0.0285894
-0.0315774
-0.0342685
-0.0369312
-0.0396515
-0.0423945
-0.0450996
-0.0477285
-0.0502674
-0.0527134
-0.0550629
-0.0573073
-0.0594356
-0.0614347
-0.0632936
-0.0649997
-0.0665435
-0.067912
-0.0690961
-0.0700809
-0.0708582
-0.0714092
-0.0717262
-0.0717834
-0.0715721
-0.0710548
-0.0702206
-0.0690137
-0.067422
-0.0653649
-0.0628372
-0.0597342
-0.0560765
-0.0517382
-0.0467991
-0.0411191
-0.0348814
-0.0279252
-0.0205747
-0.0126017
-0.00446325
-0.0204257
-0.0237817
-0.0266308
-0.0292267
-0.0318015
-0.0344307
-0.0370846
-0.0397099
-0.0422718
-0.044757
-0.0471614
-0.0494805
-0.0517057
-0.0538259
-0.0558281
-0.057701
-0.0594319
-0.0610102
-0.0624227
-0.0636592
-0.0647043
-0.0655484
-0.0661722
-0.0665666
-0.066706
-0.0665808
-0.0661552
-0.0654188
-0.0643206
-0.06285
-0.060935
-0.0585732
-0.0556717
-0.0522528
-0.0482043
-0.0436009
-0.0383156
-0.0325133
-0.0260459
-0.0192027
-0.0117754
-0.00417168
-0.0161799
-0.01932
-0.0220292
-0.0245237
-0.0270041
-0.029536
-0.0320942
-0.0346322
-0.0371184
-0.03954
-0.0418921
-0.0441698
-0.0463642
-0.0484643
-0.0504574
-0.052332
-0.0540751
-0.055676
-0.0571206
-0.0583984
-0.0594933
-0.0603949
-0.0610836
-0.0615492
-0.0617665
-0.0617252
-0.0613911
-0.0607545
-0.0597689
-0.0584244
-0.0566561
-0.0544643
-0.0517662
-0.0485847
-0.0448199
-0.0405415
-0.0356344
-0.0302474
-0.024245
-0.0178852
-0.0109793
-0.0038903
-0.0122512
-0.015186
-0.0177562
-0.0201459
-0.0225275
-0.0249583
-0.0274166
-0.0298618
-0.0322657
-0.034616
-0.0369073
-0.0391343
-0.041288
-0.0433579
-0.0453313
-0.0471967
-0.0489411
-0.0505535
-0.0520196
-0.0533284
-0.0544636
-0.0554139
-0.05616
-0.0566906
-0.0569812
-0.0570209
-0.0567769
-0.0562397
-0.0553695
-0.0541537
-0.0525346
-0.0505145
-0.0480195
-0.0450724
-0.0415842
-0.0376194
-0.0330745
-0.0280834
-0.022523
-0.0166236
-0.0102148
-0.0036198
-0.00862149
-0.011362
-0.0137958
-0.0160793
-0.0183601
-0.0206877
-0.0230437
-0.0253928
-0.0277098
-0.0299831
-0.0322071
-0.034376
-0.0364811
-0.0385121
-0.0404568
-0.0423036
-0.0440398
-0.045654
-0.0471321
-0.0484626
-0.0496292
-0.0506202
-0.0514164
-0.052006
-0.0523652
-0.0524826
-0.0523266
-0.0518845
-0.0511326
-0.0500462
-0.0485766
-0.0467278
-0.0444336
-0.0417165
-0.0384967
-0.034834
-0.0306353
-0.0260213
-0.0208806
-0.0154189
-0.00948313
-0.00336076
-0.00527335
-0.00783096
-0.0101324
-0.01231
-0.0144896
-0.0167138
-0.0189669
-0.0212183
-0.0234457
-0.0256382
-0.02779
-0.0298953
-0.0319456
-0.0339309
-0.0358394
-0.0376598
-0.0393795
-0.0409872
-0.0424689
-0.0438128
-0.0450029
-0.0460272
-0.0468666
-0.0475093
-0.0479321
-0.0481241
-0.0480568
-0.047724
-0.0470708
-0.0461098
-0.0447882
-0.0431083
-0.0410112
-0.038518
-0.0355576
-0.0321849
-0.0283164
-0.0240609
-0.0193181
-0.0142719
-0.00878518
-0.00311359
-0.00219075
-0.00457697
-0.00675114
-0.00882471
-0.0109043
-0.0130262
-0.0151773
-0.0173309
-0.0194675
-0.0215771
-0.0236537
-0.0256916
-0.0276825
-0.0296168
-0.0314832
-0.0332708
-0.0349673
-0.0365614
-0.0380395
-0.0393896
-0.0405961
-0.0416467
-0.0425229
-0.0432127
-0.0436938
-0.0439549
-0.0439687
-0.0437247
-0.0431855
-0.0423503
-0.0411745
-0.0396604
-0.0377549
-0.0354786
-0.0327675
-0.0296722
-0.0261178
-0.0222024
-0.0178362
-0.0131833
-0.00812174
-0.00287864
0.000641144
-0.00158525
-0.00363812
-0.00561062
-0.00759252
-0.00961463
-0.0116656
-0.0137229
-0.0157691
-0.0177951
-0.019795
-0.0217632
-0.0236917
-0.0255713
-0.0273913
-0.0291412
-0.030809
-0.0323837
-0.033852
-0.0352021
-0.0364186
-0.0374894
-0.0383965
-0.0391277
-0.0396616
-0.0399866
-0.0400769
-0.0399222
-0.0394897
-0.0387761
-0.0377416
-0.0363883
-0.034668
-0.0326001
-0.0301276
-0.0272964
-0.0240398
-0.0204462
-0.0164352
-0.0121538
-0.00749349
-0.00265618
0.00323578
0.00115774
-0.000780392
-0.00265581
-0.00454342
-0.00646909
-0.00842327
-0.0103866
-0.0123441
-0.0142871
-0.0162103
-0.0181078
-0.0199723
-0.0217949
-0.0235656
-0.0252741
-0.0269091
-0.0284599
-0.0299135
-0.0312583
-0.0324795
-0.033565
-0.0344974
-0.0352645
-0.0358459
-0.03623
-0.0363922
-0.0363229
-0.035992
-0.0353949
-0.0344958
-0.0332967
-0.0317539
-0.029885
-0.0276393
-0.0250586
-0.0220832
-0.0187929
-0.015116
-0.0111841
-0.00690107
-0.00244646
0.00560528
0.00366423
0.00183379
5.07276e-05
-0.00174684
-0.00358034
-0.00544177
-0.00731468
-0.00918605
-0.0110481
-0.0128956
-0.014723
-0.0165231
-0.0182877
-0.0200073
-0.0216722
-0.0232716
-0.024795
-0.02623
-0.0275653
-0.0287866
-0.0298819
-0.0308347
-0.0316327
-0.0322565
-0.0326947
-0.0329239
-0.0329348
-0.0326996
-0.0322134
-0.031443
-0.0303905
-0.0290163
-0.0273363
-0.0253049
-0.0229604
-0.0202492
-0.0172434
-0.0138794
-0.010275
-0.00634512
-0.00224971
0.00776034
0.00594508
0.00421494
0.00251885
0.000806405
-0.000939926
-0.00271342
-0.00450025
-0.00628917
-0.00807319
-0.00984718
-0.0116059
-0.0133425
-0.0150494
-0.0167175
-0.0183376
-0.0198996
-0.0213933
-0.0228068
-0.0241293
-0.025347
-0.0264481
-0.0274168
-0.0282412
-0.0289025
-0.0293897
-0.0296807
-0.0297661
-0.0296203
-0.0292384
-0.0285893
-0.0276749
-0.0264595
-0.0249572
-0.023127
-0.0210036
-0.0185394
-0.0157991
-0.0127266
-0.00942725
-0.00582633
-0.00206619
0.0097102
0.0080097
0.00637218
0.0047572
0.00312436
0.00145962
-0.00023142
-0.00193722
-0.00364815
-0.00535789
-0.00706156
-0.0087541
-0.0104292
-0.0120795
-0.0136967
-0.0152722
-0.016796
-0.0182588
-0.019649
-0.0209563
-0.0221673
-0.0232709
-0.0242517
-0.0250981
-0.0257924
-0.0263235
-0.0266708
-0.0268248
-0.0267618
-0.0264769
-0.025941
-0.0251555
-0.0240881
-0.0227516
-0.0211087
-0.0191909
-0.0169558
-0.0144617
-0.0116588
-0.00864207
-0.0053455
-0.00189615
0.0114627
0.00986605
0.00831325
0.00677307
0.00521385
0.00362461
0.00201
0.000379544
-0.00125855
-0.00289859
-0.00453595
-0.00616579
-0.00778213
-0.0093782
-0.0109461
-0.0124778
-0.0139639
-0.0153954
-0.0167614
-0.0180519
-0.0192542
-0.0203575
-0.0213471
-0.0222117
-0.0229346
-0.0235048
-0.0239028
-0.0241193
-0.0241315
-0.0239362
-0.0235047
-0.0228383
-0.0219076
-0.020724
-0.019254
-0.0175256
-0.0155012
-0.0132333
-0.0106781
-0.00792078
-0.00490353
-0.00173992
0.013024
0.0115205
0.0100443
0.00857225
0.00708024
0.00555997
0.00401526
0.00245393
0.000882898
-0.00069271
-0.00226851
-0.00383987
-0.00540118
-0.00694609
-0.00846724
-0.00995699
-0.0114066
-0.0128074
-0.0141491
-0.0154221
-0.0166142
-0.0177151
-0.0187108
-0.0195903
-0.0203377
-0.0209423
-0.0213858
-0.0216592
-0.0217418
-0.0216247
-0.0212877
-0.0207299
-0.0199239
-0.0188799
-0.0175673
-0.0160116
-0.0141788
-0.0121168
-0.00978653
-0.00726506
-0.00450155
-0.00159787
0.0143986
0.0129774
0.0115697
0.0101588
0.00872718
0.00726894
0.0057872
0.00428825
0.00277795
0.00126089
-0.00025877
-0.00177661
-0.00328733
-0.00478498
-0.00626268
-0.00771324
-0.00912839
-0.0104999
-0.011818
-0.0130734
-0.0142547
-0.0153518
-0.0163513
-0.0172427
-0.0180107
-0.018645
-0.0191281
-0.019451
-0.0195933
-0.0195493
-0.0192976
-0.0188377
-0.018144
-0.0172254
-0.0160543
-0.0146537
-0.012993
-0.0111156
-0.00898698
-0.00667698
-0.00414089
-0.00147046
0.0155893
0.0142399
0.012892
0.0115349
0.0101566
0.00875308
0.00732692
0.00588317
0.00442673
0.00296174
0.00149216
2.22181e-05
-0.00144307
-0.00289811
-0.00433645
-0.0057513
-0.00713485
-0.00847924
-0.0097752
-0.0110138
-0.0121842
-0.0132766
-0.0142782
-0.0151789
-0.015964
-0.0166234
-0.0171405
-0.0175065
-0.0177021