/*--------------------------------*- C++ -*----------------------------------*\
  =========                 |
  \\      /  F ield         | OpenFOAM: The Open Source CFD Toolbox
   \\    /   O peration     | Website:  https://openfoam.org
    \\  /    A nd           | Version:  7
     \\/     M anipulation  |
\*---------------------------------------------------------------------------*/
FoamFile
{
    version     2.0;
    format      ascii;
    class       surfaceScalarField;
    location    "40";
    object      phi;
}
// * * * * * * * * * * * * * * * * * * * * * * * * * * * * * * * * * * * * * //

dimensions      [0 3 -1 0 0 0 0];

internalField   nonuniform List<scalar> 
12578
(
-7.22094e-06
8.5149e-06
-1.29397e-06
-2.5773e-05
2.11561e-05
-2.6041e-06
-5.38348e-05
3.10421e-05
-2.9803e-06
-8.96286e-05
3.84023e-05
-2.60851e-06
-0.000131546
4.35897e-05
-1.67279e-06
-0.000178287
4.70435e-05
-3.01718e-07
-0.000229023
4.92645e-05
1.47127e-06
-0.000283588
5.08417e-05
3.72329e-06
-0.00034264
5.24181e-05
6.63434e-06
5.47525e-05
1.05051e-05
-0.000407898
-7.13723e-06
1.56521e-05
-2.54881e-05
3.9507e-05
-5.32471e-05
5.88011e-05
-8.86365e-05
7.37917e-05
-0.000130031
8.49844e-05
-0.000176097
9.31094e-05
-0.000225946
9.9114e-05
-0.000279344
0.000104239
-0.00033688
0.000109954
0.000118074
-0.000400202
-6.96985e-06
2.2622e-05
-2.4913e-05
5.74501e-05
-5.205e-05
8.59381e-05
-8.66001e-05
0.000108342
-0.000126902
0.000125286
-0.000171545
0.000137753
-0.000219522
0.000147091
-0.000270442
0.000155159
-0.00032474
0.000164252
0.000177214
-0.000383881
-6.72484e-06
2.93468e-05
-2.40651e-05
7.47904e-05
-5.0275e-05
0.000112148
-8.35658e-05
0.000141633
-0.00012222
0.00016394
-0.000164713
0.000180246
-0.000209849
0.000192227
-0.000256996
0.000202306
-0.000306344
0.000213601
0.000229905
-0.000359035
-6.41115e-06
3.5758e-05
-2.29704e-05
9.13496e-05
-4.79686e-05
0.000137146
-7.9602e-05
0.000173266
-0.000116078
0.000200416
-0.000155718
0.000219885
-0.000197073
0.000233583
-0.000239171
0.000244404
-0.000281873
0.000256303
0.00027383
-0.000325798
-6.04005e-06
4.1798e-05
-2.16616e-05
0.000106971
-4.51888e-05
0.000160673
-7.47933e-05
0.00020287
-0.000108588
0.000234211
-0.000144702
0.000255999
-0.000181367
0.000270248
-0.000217163
0.000280199
-0.000251529
0.000290669
0.000306581
-0.00028428
-5.62446e-06
4.74225e-05
-2.01757e-05
0.000121522
-4.20006e-05
0.000182498
-6.92327e-05
0.000230103
-9.9869e-05
0.000264847
-0.000131813
0.000287943
-0.000162905
0.00030134
-0.000191151
0.000308446
-0.000215479
0.000314997
0.000325603
-0.0002345
-5.17808e-06
5.26006e-05
-1.85515e-05
0.000134896
-3.84704e-05
0.000202417
-6.30115e-05
0.000254644
-9.00337e-05
0.000291869
-0.000117178
0.000315087
-0.000141825
0.000325988
-0.000161259
0.000327879
-0.000173784
0.000327522
0.000328141
-0.000176322
-4.71458e-06
5.73151e-05
-1.68268e-05
0.000147008
-3.46605e-05
0.000220251
-5.62088e-05
0.000276192
-7.91666e-05
0.000314827
-0.000100876
0.000336797
-0.000118187
0.000343299
-0.000127476
0.000337168
-0.000126283
0.000326329
0.00031132
-0.000109462
-4.2468e-06
6.15619e-05
-1.50356e-05
0.000157797
-3.06222e-05
0.000235837
-4.88802e-05
0.00029445
-6.73058e-05
0.000333252
-8.2901e-05
0.000352392
-9.19176e-05
0.000352315
-8.95676e-05
0.000334818
-7.22861e-05
0.000309048
0.000273316
-3.42818e-05
-3.78599e-06
6.53479e-05
-1.32054e-05
0.000167216
-2.63908e-05
0.000249023
-4.10463e-05
0.000309106
-5.44221e-05
0.000346628
-6.31307e-05
0.000361101
-6.279e-05
0.000351975
-4.71701e-05
0.000319198
-8.66515e-06
0.000270543
0.000211727
5.29236e-05
-3.34115e-06
6.86891e-05
-1.1355e-05
0.00017523
-2.19801e-05
0.000259648
-3.26827e-05
0.000319808
-4.03973e-05
0.000354343
-4.12691e-05
0.000361972
-3.0259e-05
0.000340965
-1.12243e-06
0.000290061
5.90646e-05
0.000210356
0.000116657
0.000154135
-2.91853e-06
7.16076e-05
-9.49231e-06
0.000181804
-1.73785e-05
0.000267534
-2.37129e-05
0.000326143
-2.50102e-05
0.00035564
-1.6832e-05
0.000353794
6.89321e-06
0.000317239
5.45924e-05
0.000242362
0.000138712
0.000126237
-1.5166e-05
0.000270535
-2.52109e-06
7.41287e-05
-7.61293e-06
0.000186896
-1.25461e-05
0.000272467
-1.40074e-05
0.000327604
-7.94556e-06
0.000349578
1.08263e-05
0.000335022
4.93731e-05
0.000278693
0.000117884
0.000173852
0.00023268
1.14405e-05
-0.000188296
0.00040581
-2.14776e-06
-5.69767e-06
0.000190446
-7.41128e-06
0.000274181
-3.37741e-06
0.00032357
1.12106e-05
0.00033499
4.25438e-05
0.000303689
9.90017e-05
0.000222235
0.00019237
8.04834e-05
0.000344397
-0.000140586
-0.000406806
0.000562906
-3.70979e-06
0.000192363
-1.86243e-06
0.000272334
8.42178e-06
0.000313286
3.29662e-05
0.000310446
7.92776e-05
0.000257378
0.000157408
0.000144105
0.000280785
-4.28939e-05
0.000477585
-0.000337386
-0.000672832
0.000743612
-1.58815e-06
0.000192507
4.23566e-06
0.00026651
2.17028e-05
0.000295819
5.79144e-05
0.000274234
0.00012208
0.000193212
0.000226362
3.98218e-05
0.000385918
-0.00020245
0.000634987
-0.000586455
-0.00098524
0.000947395
7.46362e-07
1.10856e-05
0.00025617
3.68497e-05
0.000270055
8.67322e-05
0.000224352
0.000172052
0.000107893
0.000307529
-9.56553e-05
0.000510439
-0.000405359
0.000817132
-0.000893149
-0.00133864
0.00117053
1.89327e-05
0.000240602
5.43243e-05
0.000234663
0.000120175
0.000158501
0.000230295
-2.22697e-06
0.000402271
-0.000267631
0.000656474
-0.000659563
0.00102166
-0.00125834
-0.00172627
0.00140929
2.80826e-05
7.46633e-05
0.000188082
0.000159054
7.411e-05
0.000297814
-0.000140987
0.000511274
-0.000481092
0.000823643
-0.000971932
0.00124564
-0.00168033
-0.00215613
0.0016755
9.84613e-05
0.000204195
-3.16236e-05
0.000375392
-0.000312183
0.000634209
-0.000739909
0.00100595
-0.00134367
0.00148098
-0.00215536
-0.0028631
0.00218795
0.000256355
-0.000161651
0.000463472
-0.0005193
0.000770006
-0.00104644
0.001196
-0.00176967
0.00172028
-0.00267963
-0.00356138
0.00241856
0.00031608
0.00056187
-0.000765091
0.000916361
-0.00140093
0.00138793
-0.00224123
0.00194822
-0.00323992
-0.00423267
0.00261951
0.000669398
0.00106876
-0.0018003
0.00157451
-0.00274698
0.00214729
-0.00381271
-0.00486184
0.00277647
0.00122071
0.00174528
-0.00327155
0.00230747
-0.0043749
-0.00543427
0.00287989
0.00189039
0.00242263
-0.00490714
-0.00594179
0.00293015
0.00249137
-0.00638303
0.00293261
0.00289454
0.00251628
0.00538565
0.00637254
0.00289578
0.00249063
0.00489611
0.00592993
0.00293324
0.00188798
0.00326134
0.00242097
0.00436312
0.00542096
0.00292994
0.00121764
0.00179273
0.00174208
0.0027369
0.00230477
0.00380043
0.00484711
0.00287862
0.000666577
0.000760637
0.00106521
0.0013941
0.00157052
0.0022316
0.00214348
0.00322747
0.00421668
0.0027739
0.000313786
0.000159786
0.000558726
0.000515697
0.000912341
0.00104049
0.0013832
0.00176074
0.00194328
0.00266738
0.00354447
0.00261549
0.000253787
3.05753e-05
0.000459983
0.0003095
0.00076553
0.000734939
0.00119057
0.0013357
0.00171429
0.00214367
0.00284578
0.00241299
9.64979e-05
-0.000187341
0.000201353
-7.42797e-05
0.000371562
0.000139291
0.000629297
0.000477204
0.000999875
0.00096512
0.00147407
0.00166947
0.00213879
0.00218106
2.67484e-05
-0.00023886
7.2516e-05
-0.000233108
0.000155975
-0.000157739
0.000293691
1.57493e-06
0.000505988
0.000264907
0.00081704
0.000654069
0.00123778
0.00124873
0.00171038
0.00166618
1.75036e-05
-0.000253733
5.20483e-05
-0.000267653
0.000116938
-0.000222629
0.000225984
-0.00010747
0.000396748
9.41427e-05
0.00064957
0.000401247
0.00101324
0.000885067
0.0013245
0.00139912
3.57848e-08
-0.000190116
9.61336e-06
-0.00026331
3.45218e-05
-0.000292561
8.34499e-05
-0.000271557
0.000167706
-0.000191727
0.000301982
-4.01329e-05
0.000503535
0.000199694
0.000808601
0.000580001
0.000973133
0.00115997
-2.37086e-06
-0.000189431
2.76467e-06
-0.000268446
1.9413e-05
-0.00030921
5.47196e-05
-0.000306864
0.000117886
-0.000254893
0.000221043
-0.00014329
0.00037933
4.1407e-05
0.000626803
0.000332528
0.000662835
0.000937101
-2.03326e-06
-7.47714e-05
-4.4626e-06
-0.000187002
-3.27551e-06
-0.000269633
6.26207e-06
-0.000318747
2.99953e-05
-0.000330597
7.54263e-05
-0.000300324
0.000152573
-0.000220437
0.000274836
-8.08554e-05
0.00047021
0.000137154
0.000398782
0.000734263
-2.37658e-06
-7.23948e-05
-6.39896e-06
-0.00018298
-8.70543e-06
-0.000267326
-5.32305e-06
-0.00032213
8.58619e-06
-0.000344506
3.92057e-05
-0.000330944
9.48823e-05
-0.000276114
0.000187359
-0.000173332
0.000338245
-1.37325e-05
0.000181922
0.000555105
-2.73023e-06
-6.96645e-05
-8.24069e-06
-0.000177469
-1.36808e-05
-0.000261886
-1.56706e-05
-0.00032014
-1.01273e-05
-0.00035005
8.1326e-06
-0.000349204
4.61432e-05
-0.000314124
0.000114046
-0.000241234
0.000228077
-0.000127764
9.96641e-06
0.000400033
-3.10206e-06
-6.65625e-05
-1.00299e-05
-0.000170541
-1.83235e-05
-0.000253593
-2.50497e-05
-0.000313414
-2.66896e-05
-0.00034841
-1.87996e-05
-0.000357094
4.68587e-06
-0.00033761
5.20612e-05
-0.00028861
0.000135862
-0.000211564
-0.000121263
0.000267091
-3.49524e-06
-6.30672e-05
-1.17926e-05
-0.000162244
-2.27195e-05
-0.000242666
-3.36733e-05
-0.00030246
-4.15529e-05
-0.00034053
-4.24936e-05
-0.000356153
-3.14578e-05
-0.000348646
-2.09749e-06
-0.00031797
5.80154e-05
-0.000271677
-0.000216393
0.000153145
-3.90902e-06
-5.91582e-05
-1.35403e-05
-0.000152612
-2.69231e-05
-0.000229283
-4.16951e-05
-0.000287688
-5.50695e-05
-0.000327156
-6.36419e-05
-0.00034758
-6.3027e-05
-0.000349261
-4.70324e-05
-0.000333965
-7.91161e-06
-0.000310798
-0.000278655
5.435e-05
-4.33923e-06
-5.4819e-05
-1.52715e-05
-0.00014168
-3.09588e-05
-0.000213596
-4.92126e-05
-0.000269434
-6.74912e-05
-0.000308877
-8.27736e-05
-0.000332298
-9.12957e-05
-0.000340738
-8.82577e-05
-0.000337003
-6.9991e-05
-0.000329065
-0.00031773
-3.09158e-05
-4.77866e-06
-5.00403e-05
-1.6973e-05
-0.000129486
-3.48239e-05
-0.000195745
-5.62676e-05
-0.00024799
-7.89613e-05
-0.000286183
-0.000100218
-0.000311041
-0.000116859
-0.000324098
-0.000125216
-0.000328645
-0.000122727
-0.000331554
-0.000336228
-0.000104229
-5.21747e-06
-4.48229e-05
-1.86216e-05
-0.000116082
-3.84911e-05
-0.000175875
-6.28519e-05
-0.000223629
-8.95263e-05
-0.000259509
-0.000116123
-0.000284445
-0.000139981
-0.000300239
-0.000158321
-0.000310306
-0.000169335
-0.000320539
-0.000335739
-0.000169824
-5.64382e-06
-3.91791e-05
-2.01862e-05
-0.000101539
-4.19142e-05
-0.000154147
-6.89174e-05
-0.000196626
-9.91583e-05
-0.000229268
-0.000130505
-0.000253098
-0.000160752
-0.000269992
-0.000187829
-0.000283229
-0.000210545
-0.000297824
-0.000318956
-0.000227328
-6.04454e-06
-3.31345e-05
-2.16304e-05
-8.59535e-05
-4.50332e-05
-0.000130744
-7.43876e-05
-0.000167272
-0.000107775
-0.000195881
-0.000143291
-0.000217582
-0.000179117
-0.000234166
-0.000213752
-0.000248593
-0.000246517
-0.000265059
-0.000288452
-0.000277021
-6.40602e-06
-2.67285e-05
-2.29154e-05
-6.94441e-05
-4.77811e-05
-0.000105879
-7.91691e-05
-0.000135884
-0.00011526
-0.00015979
-0.000154344
-0.000178498
-0.000194924
-0.000193586
-0.000235952
-0.000207566
-0.000277173
-0.000223838
-0.000246617
-0.000319008
-6.71501e-06
-2.00135e-05
-2.40029e-05
-5.21562e-05
-5.00896e-05
-7.97921e-05
-8.31632e-05
-0.00010281
-0.000121485
-0.000121468
-0.000163502
-0.000136481
-0.000207978
-0.000149109
-0.000254214
-0.00016133
-0.0003023
-0.000175751
-0.000195714
-0.000353204
-6.95955e-06
-1.30539e-05
-2.48577e-05
-3.42581e-05
-5.18955e-05
-5.27542e-05
-8.62759e-05
-6.843e-05
-0.000126321
-8.14227e-05
-0.000170602
-9.22009e-05
-0.000218076
-0.000101635
-0.000268302
-0.000111105
-0.000321638
-0.000122415
-0.000137938
-0.000379413
-7.1297e-06
-5.92423e-06
-2.54504e-05
-1.59374e-05
-5.31453e-05
-2.50594e-05
-8.84269e-05
-3.31483e-05
-0.00012966
-4.01892e-05
-0.000175499
-4.63626e-05
-0.000225034
-5.21001e-05
-0.000277998
-5.81407e-05
-0.000334931
-6.54817e-05
-7.54719e-05
-0.000397398
-7.21819e-06
-2.57597e-05
-5.37994e-05
-8.95562e-05
-0.000131418
-0.000178082
-0.000228711
-0.000283129
-0.000341976
-0.000406943
-0.000439064
2.0027e-05
1.11389e-05
-0.000470616
1.70354e-05
1.45164e-05
-0.000502184
1.2919e-05
1.86493e-05
-0.00053367
7.8284e-06
2.36573e-05
-0.000565011
1.68429e-06
2.96569e-05
-0.00059614
-5.64549e-06
3.67745e-05
-0.000627002
-1.42397e-05
4.51019e-05
-0.000657522
-2.41917e-05
5.47112e-05
-0.000687617
-3.55253e-05
6.56209e-05
-0.00071721
-4.81765e-05
7.77695e-05
-0.000746227
-6.19708e-05
9.09877e-05
-0.0007746
-7.65898e-05
0.000104962
-0.000802266
-9.15312e-05
0.000119198
-0.000829165
-0.000106074
0.000132972
-0.000855238
-0.000119212
0.000145286
-0.000880427
-0.000129661
0.00015485
-0.000904656
-0.000135839
0.000160069
-0.000927833
-0.000135858
0.000159035
-0.000949839
-0.000127579
0.000149585
-0.00097052
-0.000108702
0.000129383
-0.000989686
-7.69151e-05
9.60808e-05
-0.00100709
-3.01107e-05
4.75106e-05
-0.00102245
3.33837e-05
-1.80206e-05
-0.00103539
0.000113634
-0.000100695
-0.00104544
0.000210169
-0.000200113
-0.00105209
0.0003205
-0.00031385
-0.00105471
0.000440032
-0.000437414
-0.00105264
0.000561559
-0.000563634
-0.00104498
0.000675332
-0.000682989
-0.00103091
0.000768823
-0.000782898
-0.00100909
0.000828046
-0.000849862
-0.000978732
0.000837524
-0.000867881
-0.000938022
0.000784023
-0.000824733
-0.000887043
0.000656163
-0.000707142
-0.000823793
0.000451085
-0.000514335
-0.000750722
0.000173692
-0.000246763
-0.00066534
-0.000159584
7.42018e-05
-0.000573987
-0.000505883
0.00041453
-0.000468727
-0.000851681
0.000746422
-0.000363355
-0.00102572
0.000920347
-0.000223507
-0.00110962
0.000969775
-0.000673254
0.00052992
-0.000430988
5.08138e-05
-0.000462227
4.82737e-05
-0.000493558
4.42506e-05
-0.000524882
3.91521e-05
-0.000556103
3.29049e-05
-0.000587168
2.54203e-05
-0.000617995
1.65863e-05
-0.000648498
6.31152e-06
-0.000678585
-5.43806e-06
-0.000708168
-1.85936e-05
-0.000737161
-3.29778e-05
-0.000765484
-4.82668e-05
-0.000793062
-6.39534e-05
-0.000819817
-7.93192e-05
-0.000845677
-9.33526e-05
-0.000870575
-0.000104763
-0.000894426
-0.000111988
-0.000917129
-0.000113155
-0.000938562
-0.000106146
-0.000958571
-8.86931e-05
-0.000976965
-5.85212e-05
-0.000993497
-1.3579e-05
-0.00100794
4.78254e-05
-0.00101983
0.00012553
-0.00102871
0.000219043
-0.001034
0.000325793
-0.00103504
0.000441067
-0.00103108
0.000557605
-0.00102119
0.000665437
-0.00100445
0.000752089
-0.000979529
0.000803121
-0.00094563
0.000803624
-0.000901045
0.000739439
-0.000846038
0.000601156
-0.000778915
0.000383962
-0.000702504
9.728e-05
-0.000614723
-0.000247365
-0.000522612
-0.000597993
-0.000418162
-0.000956131
-0.000315622
-0.00112826
-0.000178163
-0.00124708
-0.000814998
-0.000413727
8.06596e-05
-0.000444121
7.86677e-05
-0.000474727
7.48574e-05
-0.000505435
6.98598e-05
-0.000536126
6.35958e-05
-0.000566715
5.60097e-05
-0.000597107
4.69778e-05
-0.000627196
3.64009e-05
-0.000656882
2.42473e-05
-0.000686061
1.05861e-05
-0.000714635
-4.40402e-06
-0.00074251
-2.03922e-05
-0.000769594
-3.68687e-05
-0.0007958
-5.31139e-05
-0.000821028
-6.81239e-05
-0.000845214
-8.05769e-05
-0.000868251
-8.89512e-05
-0.000890033
-9.1374e-05
-0.000910431
-8.57473e-05
-0.000929294
-6.98301e-05
-0.000946391
-4.14249e-05
-0.000961619
1.64959e-06
-0.000974608
6.08137e-05
-0.00098494
0.000135863
-0.000992116
0.000226218
-0.00099554
0.000329217
-0.00099449
0.000440017
-0.000988182
0.000551297
-0.000975608
0.000652863
-0.000955827
0.000732308
-0.000927472
0.000774766
-0.000889789
0.000765942
-0.000841171
0.00069082
-0.000782056
0.00054204
-0.000711017
0.000312924
-0.000631306
1.75691e-05
-0.000541052
-0.00033762
-0.000448098
-0.000690947
-0.000344162
-0.00106007
-0.000244357
-0.00122806
-0.000109065
-0.00138237
-0.000953472
-0.000387411
0.000109035
-0.000416453
0.00010771
-0.000445865
0.000104269
-0.000475525
9.95197e-05
-0.000505276
9.33463e-05
-0.000534996
8.57304e-05
-0.000564567
7.65488e-05
-0.000593866
6.56991e-05
-0.000622772
5.31531e-05
-0.000651169
3.8984e-05
-0.000678954
2.33804e-05
-0.000706008
6.66162e-06
-0.000732229
-1.06471e-05
-0.000757501
-2.78421e-05
-0.00078172
-4.39048e-05
-0.00080481
-5.74874e-05
-0.000826639
-6.71218e-05
-0.000847091
-7.09222e-05
-0.000866033
-6.6805e-05
-0.000883314
-5.25492e-05
-0.000898653
-2.6086e-05
-0.000912135
1.51315e-05
-0.000923197
7.18756e-05
-0.000931485
0.000144151
-0.000936484
0.000231218
-0.000937572
0.000330305
-0.000933991
0.000436436
-0.000924916
0.000542222
-0.0009093
0.000637247
-0.000886174
0.000709182
-0.00085417
0.000742762
-0.000812576
0.000724347
-0.000759884
0.000638129
-0.0006967
0.000478856
-0.000621741
0.000237965
-0.000538988
-6.51838e-05
-0.000446179
-0.000430429
-0.000352302
-0.000784824
-0.000248546
-0.00116382
-0.000151381
-0.00132523
-1.55509e-05
-0.0015182
-0.00108492
-0.000352232
0.000135469
-0.000379456
0.000134934
-0.000407235
0.000132049
-0.000435441
0.000127725
-0.000463863
0.000121768
-0.000492342
0.00011421
-0.000520729
0.000104935
-0.000548877
9.38471e-05
-0.000576649
8.09256e-05
-0.000603916
6.62511e-05
-0.000630552
5.00165e-05
-0.000656448
3.25572e-05
-0.000681501
1.44061e-05
-0.000705492
-3.85136e-06
-0.000728362
-2.10351e-05
-0.00075002
-3.58284e-05
-0.000770305
-4.68375e-05
-0.000789077
-5.21502e-05
-0.000806198
-4.96835e-05
-0.00082152
-3.72277e-05
-0.000834735
-1.28706e-05
-0.000846043
2.64393e-05
-0.00085477
8.06027e-05
-0.000860592
0.000149973
-0.000862997
0.000233622
-0.000861344
0.000328651
-0.000854852
0.000429944
-0.000842673
0.000530043
-0.000823735
0.000618309
-0.00079706
0.000682508
-0.000761291
0.000706993
-0.000715762
0.000678818
-0.000659065
0.000581432
-0.000591965
0.000411755
-0.000513334
0.000159334
-0.000427569
-0.000150949
-0.000332345
-0.000525653
-0.000237477
-0.000879692
-0.000133484
-0.00126782
-3.97275e-05
-0.00141899
9.02108e-05
-0.00164814
-0.00121622
-0.000308385
0.000159575
-0.000333384
0.000159933
-0.000359141
0.000157805
-0.000385525
0.000154109
-0.000412264
0.000148507
-0.000439156
0.000141102
-0.000466018
0.000131798
-0.000492683
0.000120512
-0.000518996
0.000107238
-0.000544813
9.20681e-05
-0.000569996
7.51998e-05
-0.000594416
5.69772e-05
-0.000617926
3.79161e-05
-0.000640532
1.87543e-05
-0.000661696
1.2931e-07
-0.000681651
-1.58738e-05
-0.000700113
-2.83755e-05
-0.00071693
-3.53325e-05
-0.000731945
-3.4669e-05
-0.00074497
-2.42025e-05
-0.000755843
-1.99716e-06
-0.000764612
3.52077e-05
-0.000770657
8.66479e-05
-0.000773665
0.000152981
-0.000773131
0.000233089
-0.000768407
0.000323927
-0.000758704
0.000420241
-0.000743165
0.000514504
-0.00072071
0.000595854
-0.000690371
0.000652169
-0.000650815
0.000667437
-0.00060142
0.000629423
-0.000540875
0.000520888
-0.000470099
0.000340979
-0.000388061
7.72962e-05
-0.00029954
-0.00023947
-0.000202025
-0.000623168
-0.000106149
-0.000975568
7.31765e-07
-0.0013747
9.14944e-05
-0.00150975
0.000214517
-0.00177116
-0.00134594
-0.000255998
0.000181073
-0.000278455
0.000182389
-0.000301866
0.000181216
-0.000326114
0.000178358
-0.000350859
0.000173252
-0.000375854
0.000166097
-0.000400885
0.000156829
-0.000425764
0.000145391
-0.000450322
0.000131796
-0.000474405
0.000116151
-0.000497866
9.86607e-05
-0.000520558
7.96692e-05
-0.000542332
5.96898e-05
-0.000563008
3.94304e-05
-0.000582663
1.9785e-05
-0.000600612
2.07531e-06
-0.000617016
-1.19723e-05
-0.000631686
-2.06621e-05
-0.000644399
-2.19559e-05
-0.000654828
-1.37741e-05
-0.000663359
6.53396e-06
-0.000669251
4.10997e-05
-0.000672361
8.9758e-05
-0.000672298
0.000152918
-0.000668571
0.000229362
-0.000660533
0.00031589
-0.000647401
0.000407109
-0.000628329
0.000495432
-0.000602245
0.00056977
-0.000568206
0.00061813
-0.000524918
0.000624149
-0.000471801
0.000576306
-0.000407644
0.00045673
-0.000333427
0.000266763
-0.000248423
-7.70755e-06
-0.000157384
-0.00033051
-5.76922e-05
-0.00072286
3.89723e-05
-0.00107223
0.000143487
-0.00147921
0.000237117
-0.00160338
0.000354406
-0.00188845
-0.00147317
-0.000195046
0.000199797
-0.000214766
0.00020211
-0.000235602
0.000202052
-0.000257473
0.000200228
-0.000279971
0.00019575
-0.000302805
0.000188931
-0.000325737
0.000179761
-0.000348562
0.000168216
-0.000371104
0.000154339
-0.000393207
0.000138254
-0.000414718
0.000120171
-0.00043548
0.000100431
-0.000455329
7.95384e-05
-0.000474084
5.81857e-05
-0.000491612
3.73134e-05
-0.000507761
1.82239e-05
-0.000522042
2.30842e-06
-0.000534401
-8.30214e-06
-0.00054472
-1.16379e-05
-0.000552608
-5.88544e-06
-0.000558423
1.2349e-05
-0.000561424
4.41002e-05
-0.000561464
8.97987e-05
-0.00055818
0.000149633
-0.000551105
0.000222287
-0.000539607
0.000304391
-0.000522921
0.000390422
-0.000500225
0.000472737
-0.000470478
0.000540023
-0.000432771
0.000580423
-0.00038587
0.000577248
-0.000329223
0.000519659
-0.000261734
0.000389241
-0.000184354
0.000189383
-9.6803e-05
-9.52584e-05
-2.76398e-06
-0.000424549
9.77337e-05
-0.000823357
0.000195401
-0.0011699
0.000300016
-0.00158383
0.000393786
-0.00169715
0.000506724
-0.00200139
-0.00159765
-0.000125246
0.00021558
-0.000142186
0.000219049
-0.000160363
0.00022023
-0.000179714
0.000219579
-0.000199789
0.000215825
-0.000220256
0.000209398
-0.000240866
0.000200371
-0.000261412
0.000188762
-0.000281721
0.000174648
-0.00030164
0.000158173
-0.000321018
0.000139549
-0.000339694
0.000119107
-0.000357491
9.73363e-05
-0.00037422
7.49144e-05
-0.000389692
5.2785e-05
-0.000403657
3.21893e-05
-0.000415965
1.46166e-05
-0.000426136
1.86865e-06
-0.000433974
-3.80018e-06
-0.000439441
-4.17878e-07
-0.000442488
1.53957e-05
-0.000442581
4.41931e-05
-0.000439538
8.67555e-05
-0.000433
0.000143096
-0.000422535
0.000211822
-0.000407534
0.00028939
-0.000387259
0.000370147
-0.000360934
0.000446412
-0.000327559
0.000506648
-0.000286274
0.000539137
-0.000235919
0.000526893
-0.000175957
0.000459698
-0.000105421
0.000318705
-2.49421e-05
0.000108904
6.44173e-05
-0.000184618
0.000159273
-0.000519405
0.000262041
-0.000926125
0.000360528
-0.00126839
0.000465499
-0.0016888
0.000559288
-0.00179094
0.000668701
-0.00211081
-0.00171933
-4.54196e-05
0.000226718
-6.02201e-05
0.00023385
-7.58895e-05
0.0002359
-9.2712e-05
0.000236402
-0.000110273
0.000233386
-0.000128243
0.000227368
-0.000146374
0.000218502
-0.000164473
0.000206861
-0.000182384
0.000192558
-0.000199968
0.000175758
-0.000217086
0.000156666
-0.000233577
0.000135599
-0.00024926
0.000113018
-0.000263924
8.95786e-05
-0.000277357
6.62181e-05
-0.000289287
4.41198e-05
-0.000299451
2.47805e-05
-0.000307572
9.98969e-06
-0.000313231
1.85802e-06
-0.000316386
2.73717e-06
-0.000316756
1.57665e-05
-0.000314067
4.15041e-05
-0.000308055
8.07427e-05
-0.000298361
0.000133402
-0.000284581
0.000198043
-0.000266146
0.000270954
-0.000242346
0.000346348
-0.000212465
0.000416531
-0.000175568
0.00046975
-0.000130834
0.000494404
-7.71876e-05
0.000473246
-1.37439e-05
0.000396254
5.90119e-05
0.000245949
0.000141304
2.66113e-05
0.000232868
-0.000276182
0.000329163
-0.000615699
0.000433088
-0.00103005
0.000532113
-0.00136741
0.000637409
-0.00179409
0.000731264
-0.00188479
0.000837792
-0.00221733
-0.00183826
4.47149e-05
0.000234926
3.17765e-05
0.000246788
1.84501e-05
0.000249226
4.26408e-06
0.000250588
-1.09567e-05
0.000248607
-2.64696e-05
0.000242881
-4.20673e-05
0.000234099
-5.76349e-05
0.000222429
-7.30596e-05
0.000207983
-8.82347e-05
0.000190933
-0.000103039
0.000171471
-0.000117323
0.000149883
-0.000130899
0.000126594
-0.000143539
0.000102219
-0.000155018
7.76969e-05
-0.000165041
5.41429e-05
-0.000173308
3.3047e-05
-0.000179498
1.61801e-05
-0.000183215
5.5746e-06
-0.000184225
3.74713e-06
-0.000182268
1.38098e-05
-0.000177067
3.63028e-05
-0.000168336
7.20115e-05
-0.000155714
0.00012078
-0.000138833
0.000181161
-0.000117146
0.000249267
-8.99839e-05
0.000319186
-5.66907e-05
0.000383238
-1.64151e-05
0.000429475
3.15899e-05
0.000446399
8.81668e-05
0.000416669
0.000153872
0.000330549
0.000229526
0.000170296
0.0003135
-5.73629e-05
0.000406806
-0.000369488
0.000504094
-0.000712987
0.000608787
-0.00113474
0.000708105
-0.00146673
0.000813561
-0.00189955
0.000907524
-0.00197876
0.00101168
-0.00232149
-0.00195456
0.000146076
0.000242986
0.000135013
0.000257851
0.000123508
0.000260731
0.000111191
0.000262906
9.83883e-05
0.000261409
8.54251e-05
0.000255844
7.24179e-05
0.000247107
5.94295e-05
0.000235417
4.6523e-05
0.000220889
3.37677e-05
0.000203688
2.12604e-05
0.000183978
9.14282e-06
0.000162001
-2.41536e-06
0.000138153
-1.32262e-05
0.00011303
-2.2932e-05
8.74027e-05
-3.12695e-05
6.24804e-05
-3.7908e-05
3.96856e-05
-4.24851e-05
2.07572e-05
-4.45919e-05
7.68139e-06
-4.38537e-05
3.00889e-06
-4.00163e-05
9.97249e-06
-3.27559e-05
2.90424e-05
-2.1789e-05
6.10446e-05
-6.86784e-06
0.000105859
1.30832e-05
0.00016121
3.79734e-05
0.000224377
6.8299e-05
0.000288861
0.000104737
0.000346799
0.000148081
0.000386131
0.000199018
0.000395462
0.000258402
0.000357285
0.000326538
0.000262413
0.000404317
9.25161e-05
0.000489828
-0.000142874
0.000584328
-0.000463988
0.000682247
-0.000810905
0.000787313
-0.00123981
0.00088668
-0.0015661
0.000992045
-0.00200491
0.00108611
-0.00207282
0.00118831
-0.00242369
-0.00206833
0.000262383
0.000251137
0.000251545
0.000268689
0.000241042
0.000271233
0.000230294
0.000273654
0.000219442
0.000272261
0.000208732
0.000266554
0.000198118
0.000257721
0.000187539
0.000245996
0.000176981
0.000231448
0.000166464
0.000214206
0.000156054
0.000194388
0.000145876
0.000172179
0.000136114
0.000147915
0.000127012
0.000122131
0.000118832
9.55832e-05
0.000111908
6.94037e-05
0.000106603
4.49912e-05
0.000103311
2.40489e-05
0.000102487
8.50537e-06
0.000104579
9.17297e-07
0.000109904
4.64674e-06
0.000118872
2.00749e-05
0.000131806
4.81103e-05
0.000149096
8.85694e-05
0.000171087
0.000139219
0.000198254
0.00019721
0.00023117
0.000255945
0.000270354
0.000307616
0.000316471
0.000340014
0.000370089
0.000341844
0.000431955
0.000295419
0.000502207
0.000192161
0.000581746
1.29773e-05
0.000668468
-0.000229596
0.000763804
-0.000559324
0.000862
-0.000909101
0.000967046
-0.00134486
0.00106622
-0.00166527
0.0011712
-0.00210989
0.00126529
-0.00216691
0.00136585
-0.00252425
-0.0021797
0.000395456
0.000261491
0.000383419
0.000280726
0.000372942
0.00028171
0.000363104
0.000283492
0.000353778
0.000281587
0.000344982
0.00027535
0.000336442
0.00026626
0.000327948
0.00025449
0.000319399
0.000239997
0.000310768
0.000222836
0.000302098
0.000203058
0.000293502
0.000180775
0.000285161
0.000156256
0.000277318
0.000129975
0.000270255
0.000102646
0.000264322
7.53369e-05
0.000259904
4.94098e-05
0.00025743
2.65231e-05
0.00025741
8.52466e-06
0.000260246
-1.91799e-06
0.000266461
-1.56912e-06
0.000276458
1.00783e-05
0.000290628
3.39399e-05
0.000309395
6.98025e-05
0.00033313
0.000115484
0.00036229
0.00016805
0.000397397
0.000220838
0.00043892
0.000266092
0.000487415
0.00029152
0.000543357
0.000285901
0.000607358
0.000231419
0.000679563
0.000119955
0.000760214
-6.76742e-05
0.000847958
-0.000317339
0.000943749
-0.000655115
0.00104189
-0.00100725
0.00114654
-0.0014495
0.0012453
-0.00176403
0.00134958
-0.00221417
0.0014436
-0.00226093
0.00154275
-0.00262341
-0.00228875
0.00054753
0.000276867
0.000532874
0.000295383
0.00052156
0.000293023
0.000512001
0.000293051
0.000503689
0.000289899
0.000496291
0.000282748
0.000489262
0.00027329
0.000482243
0.000261509
0.000475069
0.00024717
0.000467687
0.000230219
0.000460128
0.000210616
0.000452505
0.000188398
0.000444997
0.000163764
0.000437848
0.000137124
0.000431351
0.000109143
0.000425858
8.08289e-05
0.000421773
5.34949e-05
0.000419552
2.8744e-05
0.00041982
8.2568e-06
0.000422828
-4.92546e-06
0.000429007
-7.74837e-06
0.000439547
-4.6168e-07
0.00045428
1.92066e-05
0.000473889
5.01936e-05
0.000498741
9.06324e-05
0.000529296
0.000137495
0.000566033
0.000184101
0.000609379
0.000222746
0.000659776
0.000241123
0.000717618
0.000228059
0.000783343
0.000165693
0.000856966
4.63331e-05
0.000938676
-0.000149384
0.00102694
-0.000405608
0.00112281
-0.000750982
0.00122059
-0.00110503
0.00132447
-0.00155338
0.00142262
-0.00186217
0.0015259
-0.00231745
0.00161972
-0.00235475
0.00171766
-0.00272135
-0.00239558
0.000720312
0.000300166
0.000702245
0.000313451
0.000689741
0.000305527
0.000680016
0.000302777
0.000672128
0.000297787
0.000665342
0.000289533
0.000658887
0.000279744
0.000652333
0.000268063
0.000645506
0.000253998
0.000638366
0.000237359
0.000630961
0.00021802
0.000623412
0.000195948
0.0006159
0.000171276
0.000608665
0.000144359
0.000601998
0.00011581
0.000596252
8.65752e-05
0.000591831
5.79155e-05
0.0005892
3.13754e-05
0.000588993
8.46346e-06
0.000591582
-7.51423e-06
0.00059747
-1.36362e-05
0.000607346
-1.03378e-05
0.00062212
4.4321e-06
0.00064187
3.04437e-05
0.000667165
6.53372e-05
0.000698457
0.000106203
0.0007362
0.000146357
0.000780783
0.000178163
0.000832539
0.000189367
0.00089178
0.000168818
0.000958802
9.86714e-05
0.00103335
-2.82193e-05
0.00111574
-0.000231771
0.00120418
-0.000494045
0.00129973
-0.000846534
0.00139685
-0.00120215
0.00149964
-0.00165617
0.001597
-0.00195953
0.00169903
-0.00241949
0.00179253
-0.00244825
0.00188938
-0.0028182
-0.00250027
0.000914799
0.000332763
0.000894233
0.000334016
0.000881121
0.000318639
0.000870997
0.000312901
0.000862689
0.000306095
0.000855229
0.000296993
0.00084784
0.000287133
0.000840181
0.000275722
0.000832161
0.000262018
0.000823807
0.000245712
0.000815209
0.000226618
0.0008065
0.000204656
0.000797861
0.000179915
0.000789519
0.000152701
0.000781754
0.000123575
0.000774903
9.34265e-05
0.000769362
6.34568e-05
0.000765582
3.51554e-05
0.000764128
9.91735e-06
0.000765622
-9.00898e-06
0.000770508
-1.85214e-05
0.000779342
-1.91723e-05
0.00079326
-9.48622e-06
0.000812506
1.11987e-05
0.000837549
4.0294e-05
0.000868913
7.48385e-05
0.000907014
0.000108257
0.000952214
0.000132964
0.00100474
0.00013684
0.00106483
0.000108733
0.0011326
3.08974e-05
0.00120766
-0.000103283
0.00129024
-0.000314345
0.00137844
-0.000582251
0.00147329
-0.000941382
0.00156948
-0.00129835
0.00167089
-0.00175758
0.00176735
-0.00205599
0.00186794
-0.00252007
0.00196105
-0.00254137
0.00205692
-0.00291406
-0.0026029
0.00113155
0.00037174
0.00111279
0.000352784
0.00110079
0.00033063
0.00108986
0.000323839
0.0010795
0.000316449
0.00106915
0.000307347
0.00105847
0.000297814
0.00104741
0.000286777
0.00103607
0.000273366
0.00102455
0.000257229
0.001013
0.00023817
0.00100155
0.000216105
0.000990366
0.000191098
0.00097965
0.000163416
0.000969651
0.000133574
0.00096068
0.000102398
0.00095311
7.10267e-05
0.000947367
4.08981e-05
0.000943975