/*--------------------------------*- C++ -*----------------------------------*\
  =========                 |
  \\      /  F ield         | OpenFOAM: The Open Source CFD Toolbox
   \\    /   O peration     | Website:  https://openfoam.org
    \\  /    A nd           | Version:  7
     \\/     M anipulation  |
\*---------------------------------------------------------------------------*/
FoamFile
{
    version     2.0;
    format      ascii;
    class       volVectorField;
    location    "40";
    object      U;
}
// * * * * * * * * * * * * * * * * * * * * * * * * * * * * * * * * * * * * * //

dimensions      [0 1 -1 0 0 0 0];

internalField   nonuniform List<vector> 
6386
(
(-0.00119055 0.00140108 2.52064e-21)
(-0.0066063 0.00306499 8.85715e-21)
(-0.0167537 0.00390641 -3.2946e-21)
(-0.0287892 0.00416193 2.33237e-21)
(-0.0416589 0.00401351 -1.69825e-20)
(-0.0545234 0.00361036 -7.29768e-21)
(-0.0668106 0.00306583 -1.55549e-21)
(-0.0782781 0.00246257 -2.28723e-20)
(-0.0889482 0.00185587 2.97631e-21)
(-0.0990423 0.00128259 1.40399e-20)
(-0.00135317 0.00343696 -2.30804e-20)
(-0.00693958 0.00776384 -4.74323e-21)
(-0.0171214 0.0101974 1.41322e-20)
(-0.029101 0.0112426 -5.29707e-20)
(-0.0418438 0.0112851 -6.59991e-21)
(-0.0545232 0.0106702 9.7439e-21)
(-0.0665733 0.0096933 3.49041e-21)
(-0.0777551 0.00860526 6.34227e-20)
(-0.0880912 0.00760482 -4.58892e-20)
(-0.0977747 0.00685929 7.58815e-21)
(-0.00165981 0.0054239 4.43837e-20)
(-0.0075693 0.0123591 -6.03853e-21)
(-0.0178112 0.0163582 2.42498e-20)
(-0.0296735 0.0181817 5.42989e-20)
(-0.0421565 0.0184114 1.11136e-19)
(-0.0544568 0.0175825 -8.03518e-20)
(-0.0660186 0.0161692 2.12914e-22)
(-0.0766084 0.0145898 -6.17881e-20)
(-0.0862483 0.0131912 7.85665e-20)
(-0.0950633 0.0122787 -7.46295e-20)
(-0.00210339 0.00733102 5.04526e-21)
(-0.00848241 0.0167838 -3.64069e-21)
(-0.0188094 0.0223028 2.72426e-20)
(-0.030494 0.0248834 -3.91331e-20)
(-0.0425856 0.0252918 -2.96592e-20)
(-0.0543131 0.0242435 1.41459e-19)
(-0.0651343 0.0223848 -4.33967e-20)
(-0.074822 0.0203002 -1.24736e-19)
(-0.0833996 0.0184925 -4.10683e-20)
(-0.0908684 0.0174165 5.5365e-20)
(-0.00267382 0.00913024 8.51672e-21)
(-0.00966007 0.0209756 3.54907e-20)
(-0.0200961 0.0279494 -7.57092e-20)
(-0.0315436 0.0312558 8.86668e-20)
(-0.0431133 0.0318294 5.84976e-20)
(-0.0540747 0.0305529 -2.18111e-19)
(-0.0639007 0.0282346 1.85221e-19)
(-0.0723695 0.025623 1.11361e-19)
(-0.0795131 0.0233873 3.80386e-20)
(-0.085124 0.0221475 -1.22778e-20)
(-0.00335848 0.0107973 -6.17579e-20)
(-0.0110782 0.0248784 -2.76592e-20)
(-0.021645 0.0332229 2.37858e-20)
(-0.0327965 0.0372127 -1.96842e-19)
(-0.043714 0.0379321 9.56878e-20)
(-0.0537146 0.0364146 -2.43975e-20)
(-0.0622865 0.0336173 1.42504e-21)
(-0.0692075 0.0304484 2.14589e-20)
(-0.0745381 0.0277568 -4.76509e-20)
(-0.0777227 0.0263464 -2.65855e-20)
(-0.00414288 0.0123123 1.35989e-19)
(-0.012708 0.028444 -1.53629e-20)
(-0.0234235 0.0380556 9.37787e-20)
(-0.0342183 0.0426745 3.20036e-20)
(-0.0443512 0.0435142 -2.7452e-20)
(-0.0531922 0.0417393 -2.18698e-20)
(-0.0602419 0.0384388 -1.5057e-20)
(-0.0652665 0.0346733 -4.16479e-20)
(-0.0683947 0.0314864 2.26841e-20)
(-0.0684955 0.029888 1.75799e-19)
(-0.00501136 0.0136604 -1.44677e-19)
(-0.0145171 0.0316326 9.33838e-20)
(-0.0253921 0.0423885 -1.7194e-19)
(-0.0357644 0.0475698 2.00525e-20)
(-0.0449741 0.0484975 4.85795e-20)
(-0.0524467 0.046446 1.78097e-19)
(-0.0576905 0.0426149 -8.27464e-20)
(-0.0604372 0.038206 1.38762e-19)
(-0.0609607 0.0344705 -9.387e-20)
(-0.0571856 0.0326542 -1.21336e-19)
(-0.00594779 0.0148317 1.19845e-19)
(-0.0164698 0.0344129 -5.73637e-20)
(-0.0275042 0.046172 -1.41284e-19)
(-0.0373781 0.0518357 1.29394e-20)
(-0.0455126 0.0528129 -2.42326e-19)
(-0.0513899 0.0504643 -1.45638e-20)
(-0.0545178 0.0460746 1.06738e-20)
(-0.0545525 0.0409706 -6.94488e-20)
(-0.0520505 0.0366161 1.61001e-19)
(-0.0434345 0.0345744 6.42528e-20)
(-0.00693621 0.0158212 -9.36123e-20)
(-0.0185278 0.0367624 -1.44113e-19)
(-0.0297055 0.0493655 3.64403e-19)
(-0.0389875 0.0554184 1.33742e-19)
(-0.0458727 0.0564006 4.29684e-20)
(-0.0498968 0.0537357 9.35834e-20)
(-0.0505575 0.0487634 -1.05329e-19)
(-0.0473632 0.0429094 1.66508e-20)
(-0.0413504 0.0378103 -2.63514e-19)
(-0.0268236 0.0357243 2.44353e-20)
(-0.00796137 0.0166282 2.53351e-20)
(-0.0206505 0.0386666 7.04995e-20)
(-0.0319326 0.0519371 -4.77948e-19)
(-0.0405028 0.0582728 -6.65058e-20)
(-0.0459296 0.0592109 6.57315e-20)
(-0.0477957 0.0562164 -3.06093e-19)
(-0.0455806 0.0506524 -9.85538e-21)
(-0.0385462 0.0440087 -6.88101e-21)
(-0.0282743 0.0378515 -9.72194e-20)
(-0.0068586 0.0362449 1.45616e-20)
(-0.00900909 0.0172558 -2.58538e-20)
(-0.022795 0.040118 1.26495e-19)
(-0.0341121 0.053863 3.1712e-19)
(-0.0418122 0.0603625 -1.53205e-19)
(-0.0455208 0.0612042 1.16204e-20)
(-0.0448531 0.0578791 -1.16877e-19)
(-0.0392679 0.0517508 -2.95841e-20)
(-0.0277797 0.0443768 2.75978e-19)
(-0.0120925 0.0368119 2.23734e-19)
(0.0175869 0.036051 -2.80045e-20)
(-0.0100664 0.0177099 2.75815e-20)
(-0.0249157 0.0411145 5.42651e-20)
(-0.0361585 0.0551267 -2.8399e-19)
(-0.0427782 0.0616584 1.11446e-19)
(-0.0444384 0.0623493 1.17693e-19)
(-0.0407589 0.0587098 4.06948e-19)
(-0.0311265 0.0520913 2.18619e-19)
(-0.0144458 0.0440523 -1.08997e-19)
(0.00778465 0.0350353 -2.87137e-20)
(0.0479588 0.0352697 -1.39803e-19)
(-0.0111217 0.0179985 1.88705e-19)
(-0.0269635 0.0416587 -2.79419e-19)
(-0.0379722 0.0557175 4.22368e-19)
(-0.0432339 0.0621392 -1.47077e-19)
(-0.0424243 0.0626235 -1.46706e-19)
(-0.0351348 0.0587017 -4.55844e-19)
(-0.0206167 0.0517045 -2.97347e-19)
(0.00236396 0.0430944 1.63874e-19)
(0.0324543 0.0327476 2.4317e-19)
(0.0855721 0.0345554 2.5011e-19)
(-0.0121638 0.0181308 -1.66114e-19)
(-0.0288842 0.0417563 -7.02122e-20)
(-0.0394363 0.0556308 9.62708e-21)
(-0.0429781 0.0617918 1.83639e-20)
(-0.0391625 0.0620152 3.80599e-19)
(-0.0275066 0.0578668 1.47793e-20)
(-0.00706621 0.0506762 2.89764e-19)
(0.0235721 0.0417596 -2.58024e-19)
(0.063405 0.0301252 -5.00222e-19)
(0.131777 0.0347905 -2.39757e-19)
(-0.0306161 0.0414147 4.31716e-19)
(-0.0404132 0.0548684 6.75281e-21)
(-0.0417706 0.0606149 -2.29078e-19)
(-0.0342739 0.0605272 1.40944e-19)
(-0.0173057 0.0562318 -2.37546e-19)
(0.0103501 0.0491047 -4.89112e-20)
(0.0502248 0.0402965 1.21638e-19)
(0.102353 0.0275875 1.53276e-19)
(0.187577 0.0369763 1.17896e-19)
(-0.0320868 0.0406421 -2.13849e-19)
(-0.0407404 0.053441 -1.95132e-19)
(-0.0393262 0.0586218 -2.69619e-20)
(-0.0273108 0.0581839 1.33294e-19)
(-0.00387036 0.0538508 4.48639e-19)
(0.0325778 0.0471209 3.65584e-19)
(0.0834655 0.038934 5.33587e-20)
(0.151169 0.0258795 4.40913e-19)
(0.252893 0.0421313 1.95365e-19)
(-0.033209 0.0394478 3.91251e-19)
(-0.0402247 0.0513696 9.7219e-20)
(-0.0353088 0.0558463 3.88386e-19)
(-0.0177519 0.0550439 -1.4254e-19)
(0.0135535 0.0508214 -4.41911e-19)
(0.0606556 0.0449047 -2.22241e-19)
(0.124494 0.0378733 -2.5092e-19)
(0.211643 0.0262805 -5.35602e-19)
(0.325704 0.0511613 -6.43981e-20)
(-0.0386337 0.0486842 -2.63392e-19)
(-0.0293261 0.0523506 -1.70408e-19)
(-0.00499956 0.0512141 -6.75545e-20)
(0.0358029 0.0473077 -1.72501e-20)
(0.0956672 0.0427006 6.8644e-20)
(0.174595 0.0372958 1.10145e-19)
(0.285101 0.0306766 1.8647e-19)
(0.402256 0.0636542 -3.11249e-19)
(-0.0356962 0.0454296 1.36716e-19)
(-0.0209255 0.048234 2.23253e-19)
(0.0116141 0.0468638 -1.45882e-19)
(0.063769 0.0435633 3.51543e-19)
(0.13863 0.0408346 -1.19155e-19)
(0.23504 0.0375099 -5.89551e-20)
(0.371522 0.0405901 9.48534e-21)
(0.480329 0.0735885 9.95753e-20)
(-0.00959782 0.043637 -1.65207e-19)
(0.032812 0.0422358 1.32297e-19)
(0.0983484 0.0399525 -1.16961e-19)
(0.190339 0.0397459 4.89389e-19)
(0.306542 0.0392465 -1.28289e-19)
(0.467235 0.05462 2.61947e-19)
(0.565649 0.0710901 -1.29448e-19)
(0.059343 0.0376491 -2.87809e-19)
(0.140377 0.0369594 -3.79918e-19)
(0.25129 0.0400252 -3.73446e-19)
(0.388655 0.043691 5.07951e-20)
(0.564514 0.0671188 1.81784e-19)
(0.686184 0.071694 -4.81663e-20)
(0.0919353 0.0334916 5.41258e-19)
(0.190521 0.0351623 4.04867e-19)
(0.32157 0.042361 7.90865e-20)
(0.479533 0.0517731 -2.37818e-21)
(0.664549 0.0799691 -4.82797e-20)
(0.804724 0.0870244 6.99254e-19)
(0.249131 0.0351797 -4.6554e-19)
(0.400604 0.0474202 1.9364e-19)
(0.576217 0.0635832 8.87454e-20)
(0.764918 0.0949954 -6.01801e-19)
(0.910145 0.106684 -1.04933e-19)
(0.48689 0.0557043 -1.99547e-19)
(0.675082 0.0786703 2.12479e-19)
(0.860861 0.112159 1.42724e-20)
(1.00126 0.127055 -1.07946e-19)
(0.772119 0.096326 7.34783e-20)
(0.948375 0.130603 6.39696e-20)
(1.07595 0.146776 -5.53813e-20)
(1.0247 0.149351 1.00348e-19)
(1.1348 0.164955 2.84731e-19)
(1.17944 0.181319 -1.12498e-19)
(1.08724 -0.168196 -6.98627e-20)
(1.17827 -0.182141 -4.38863e-19)
(1.02308 -0.149882 -7.12736e-20)
(1.1334 -0.165747 4.41628e-19)
(0.77024 -0.0965869 -3.59112e-19)
(0.946543 -0.131061 2.84244e-19)
(1.07426 -0.147517 -1.12817e-19)
(0.485174 -0.0557593 -5.57789e-20)
(0.673097 -0.0788414 6.27146e-20)
(0.858815 -0.112532 -4.43174e-20)
(0.999255 -0.127725 -2.725e-20)
(0.24785 -0.0350751 -1.42586e-19)
(0.398913 -0.0473755 2.02992e-19)
(0.574165 -0.0636509 2.54306e-19)
(0.762685 -0.0952721 -5.36058e-19)
(0.907789 -0.107267 -2.02942e-19)
(0.0911083 -0.0332396 -1.41596e-19)
(0.1893 -0.0349306 5.36092e-19)
(0.319916 -0.0421935 -6.14288e-20)
(0.477448 -0.0517217 6.1687e-21)
(0.662171 -0.0801359 2.16322e-19)
(0.802023 -0.0875106 3.48402e-19)
(0.0585705 -0.0372498 -4.1489e-19)
(0.139207 -0.0365792 -2.31399e-19)
(0.249674 -0.0397134 -4.24125e-19)
(0.386567 -0.0435044 -1.10332e-19)
(0.562027 -0.0671522 2.2786e-19)
(0.683205 -0.0721053 -3.63125e-20)
(-0.00998038 -0.0431223 5.92806e-20)
(0.032091 -0.0416755 -3.99608e-20)
(0.0972263 -0.0394105 6.02877e-20)
(0.188763 -0.0392758 5.41115e-19)
(0.304477 -0.0389084 -6.5336e-20)
(0.46466 -0.0545049 -1.16752e-20)
(0.562483 -0.0714435 -1.15849e-19)
(-0.035763 -0.0448827 2.26502e-19)
(-0.0212481 -0.0475596 -8.63299e-20)
(0.0109484 -0.0461376 5.99317e-20)
(0.0626991 -0.0428565 3.59176e-19)
(0.137102 -0.0402043 -3.40941e-19)
(0.233015 -0.0370093 2.48594e-19)
(0.368921 -0.0403271 -2.57054e-19)
(0.476985 -0.0737689 1.08866e-19)
(-0.0386354 -0.0479891 -3.85205e-19)
(-0.0295811 -0.0515156 -1.84583e-19)
(-0.00559901 -0.050327 1.08695e-20)
(0.0348002 -0.0464458 -3.54774e-20)
(0.0942109 -0.0419231 1.5521e-19)
(0.172642 -0.0366462 -5.08382e-20)
(0.282578 -0.0302953 2.33609e-19)
(0.398907 -0.0636186 -2.96468e-19)
(-0.0330063 -0.0388677 -1.2405e-19)
(-0.0401542 -0.0505207 4.19377e-19)
(-0.0354866 -0.0548564 1.81474e-19)
(-0.0182695 -0.0540103 5.56527e-20)
(0.0126417 -0.0498264 -4.68023e-19)
(0.059305 -0.0440081 -3.56226e-19)
(0.122658 -0.0371137 -2.40442e-19)
(0.20928 -0.0258141 -4.70901e-19)
(0.322456 -0.0509613 -2.26771e-19)
(-0.0318263 -0.0399422 -3.10454e-19)
(-0.0405933 -0.0524456 -9.79397e-20)
(-0.0394203 -0.0574885 4.46247e-20)
(-0.0277299 -0.0570257 -3.78817e-20)
(-0.00466348 -0.0527537 5.89481e-19)
(0.0313725 -0.0461448 3.00965e-19)
(0.0818 -0.038117 1.56156e-19)
(0.149032 -0.0253678 2.88873e-19)
(0.24987 -0.0418513 9.44988e-20)
(-0.0129894 -0.0177602 -6.06551e-20)
(-0.0302986 -0.0405914 4.0251e-19)
(-0.0401936 -0.0537393 -2.65315e-20)
(-0.0417752 -0.0593583 -1.56204e-19)
(-0.0345789 -0.0592725 7.47452e-20)
(-0.0179534 -0.0550696 -9.44892e-20)
(0.0093293 -0.0480943 -2.45243e-19)
(0.0487864 -0.0394775 9.57393e-20)
(0.100503 -0.0270804 2.95601e-19)
(0.184907 -0.0366999 1.33005e-20)
(-0.0119474 -0.0177107 -7.81702e-20)
(-0.0285173 -0.0408149 -1.35459e-19)
(-0.0391482 -0.0543806 -1.39476e-19)
(-0.0428902 -0.0604347 7.866e-20)
(-0.0393426 -0.0606949 2.74469e-19)
(-0.0279879 -0.0566779 2.83558e-19)
(-0.00787007 -0.0496771 9.92181e-20)
(0.0224092 -0.0409905 -3.25103e-19)
(0.0618961 -0.0296793 -2.73133e-19)
(0.129561 -0.0345968 -2.90538e-19)
(-0.0108871 -0.0175166 2.28379e-19)
(-0.0265574 -0.0406089 -2.86756e-19)
(-0.0376226 -0.0543625 1.89301e-19)
(-0.0430554 -0.0607058 1.66745e-19)
(-0.0424751 -0.0612686 -3.70821e-19)
(-0.0354377 -0.0575233 -3.22377e-19)
(-0.0211831 -0.0507591 -3.86786e-19)
(0.00150914 -0.0424197 1.43269e-19)
(0.0313263 -0.0324195 1.48247e-19)
(0.0838787 -0.0345151 4.11522e-19)
(-0.00982022 -0.0171706 -1.63384e-19)
(-0.0244818 -0.0399686 6.88515e-20)
(-0.0357573 -0.0536858 -2.17586e-19)
(-0.0425161 -0.0601737 1.75843e-19)
(-0.0443631 -0.060989 2.60364e-20)
(-0.0408824 -0.0575751 5.00093e-19)
(-0.0314497 -0.0512377 2.34335e-19)
(-0.0149803 -0.0435074 -1.23019e-19)
(0.00705612 -0.0348726 -5.01287e-20)
(0.0468187 -0.0354456 3.87441e-21)
(-0.00875819 -0.0166654 -7.19351e-20)
(-0.0223455 -0.0388902 1.80162e-19)
(-0.0336719 -0.0523561 2.28113e-19)
(-0.0414777 -0.05885 -2.42928e-20)
(-0.0453298 -0.0598644 -2.23472e-19)
(-0.0448076 -0.0568151 -2.13475e-21)
(-0.0393563 -0.0510195 7.24741e-20)
(-0.0280077 -0.0440027 1.42894e-19)
(-0.0124252 -0.0368396 2.68755e-19)
(0.0169926 -0.0364921 -7.7085e-21)
(-0.00771263 -0.0159938 -2.57585e-20)
(-0.0201979 -0.0373723 1.29044e-20)
(-0.0314675 -0.0503836 -3.52684e-19)
(-0.040111 -0.0567541 -1.37307e-19)
(-0.0456395 -0.057913 4.99943e-20)
(-0.0476007 -0.0552436 -3.22028e-19)
(-0.0454611 -0.0500601 1.57741e-19)
(-0.0384899 -0.0438303 -2.08692e-19)
(-0.0282388 -0.0381008 -9.44351e-20)
(-0.00694784 -0.036979 1.45265e-19)
(-0.00669597 -0.0151507 -6.93066e-20)
(-0.0180842 -0.035417 -1.10131e-19)
(-0.0292304 -0.0477838 3.72388e-19)
(-0.0385559 -0.0539116 5.48938e-20)
(-0.0455045 -0.0551612 2.43501e-19)
(-0.0495786 -0.0528682 -2.74204e-20)
(-0.050262 -0.0483217 -4.98868e-20)
(-0.0470612 -0.0429274 -6.43745e-20)
(-0.0410045 -0.0383111 -2.51462e-19)
(-0.0264521 -0.0367676 -5.64494e-20)
(-0.00572165 -0.0141328 8.91436e-20)
(-0.0160463 -0.0330311 -1.24176e-19)
(-0.0270342 -0.0445783 -1.71471e-20)
(-0.0369256 -0.0503555 -3.48753e-20)
(-0.0450905 -0.0516435 -2.30231e-19)
(-0.0509796 -0.0497105 -5.65944e-22)
(-0.0540864 -0.0457893 -6.53892e-20)
(-0.0540603 -0.0411891 3.47776e-20)
(-0.0514568 -0.037375 1.5578e-19)
(-0.0426972 -0.0359302 4.61119e-20)
(-0.004804 -0.0129404 -1.64044e-19)
(-0.0141236 -0.0302276 1.33345e-19)
(-0.0249414 -0.040796 -1.65621e-19)
(-0.0353104 -0.0461267 8.43418e-21)
(-0.0445239 -0.0474048 9.22262e-21)
(-0.0519787 -0.0458083 2.12983e-19)
(-0.0571683 -0.0424855 -4.24681e-20)
(-0.0598163 -0.0386232 -1.14016e-20)
(-0.0601933 -0.0354822 5.66752e-20)
(-0.0561979 -0.0343264 -2.61706e-19)
(-0.00395802 -0.0115778 1.75306e-19)
(-0.0123528 -0.027027 -9.72045e-20)
(-0.0230054 -0.0364744 9.83247e-20)
(-0.0337816 -0.0412752 5.49553e-20)
(-0.043899 -0.0424999 2.14903e-20)
(-0.0527014 -0.0412149 -5.09994e-20)
(-0.0596754 -0.0384585 -6.93256e-20)
(-0.0645787 -0.0352798 -7.53214e-20)
(-0.0675327 -0.0327379 1.34784e-19)
(-0.0673709 -0.0318657 9.80839e-20)
(-0.00319889 -0.0100537 -4.57652e-20)
(-0.010768 -0.0234578 2.3638e-20)
(-0.0212713 -0.0316598 1.36937e-20)
(-0.0323948 -0.0358596 -1.76779e-19)
(-0.0432843 -0.0369938 3.52974e-20)
(-0.0532346 -0.035996 3.51367e-20)
(-0.0617207 -0.0337742 -7.33185e-20)
(-0.0685123 -0.0312284 3.84379e-20)
(-0.0736591 -0.0292277 -3.09594e-20)
(-0.0765686 -0.028606 -6.40931e-20)
(-0.00254146 -0.00838179 -3.7256e-20)
(-0.00940017 -0.0195573 1.38971e-20)
(-0.0197767 -0.0264076 -2.97242e-20)
(-0.0311924 -0.0299477 9.64532e-20)
(-0.0427286 -0.0309606 -2.084e-20)
(-0.0536361 -0.0302286 -1.48994e-19)
(-0.0633768 -0.0285124 9.456e-20)
(-0.0717209 -0.0265554 1.63188e-19)
(-0.0786882 -0.0250509 5.29433e-20)
(-0.0840375 -0.0246561 -1.47178e-21)
(-0.00199954 -0.00658057 -1.09472e-20)
(-0.00827672 -0.0153712 3.87308e-20)
(-0.0185525 -0.0207824 -7.67601e-20)
(-0.0302065 -0.0236155 2.84789e-20)
(-0.0422652 -0.0244828 -4.74919e-20)
(-0.0539428 -0.0239988 1.20655e-19)
(-0.0646878 -0.0227636 -6.47103e-20)
(-0.0742666 -0.0213598 -5.85547e-20)
(-0.0826906 -0.0203169 -9.37945e-20)
(-0.089933 -0.0201335 8.71502e-20)
(-0.00158524 -0.00467315 4.10367e-20)
(-0.00742059 -0.0109531 -1.99505e-20)
(-0.0176232 -0.0148565 3.46881e-20)
(-0.0294604 -0.0169466 4.72223e-20)
(-0.0419161 -0.0176496 1.06052e-19)
(-0.0541763 -0.0173997 -7.96683e-20)
(-0.0656783 -0.0166262 2.09813e-20)
(-0.0761839 -0.0157477 -6.62692e-20)
(-0.0857051 -0.0151402 6.28884e-20)
(-0.094346 -0.0151574 -5.70752e-20)
(-0.0013083 -0.0026866 -1.35074e-20)
(-0.00684969 -0.00636332 4.65108e-21)
(-0.0170069 -0.00870938 5.39517e-21)
(-0.0289701 -0.0100307 -3.95017e-20)
(-0.0416949 -0.0105561 -2.13543e-20)
(-0.0543484 -0.0105298 2.23412e-20)
(-0.0663605 -0.0102037 3.60793e-21)
(-0.0774891 -0.00983025 6.98678e-20)
(-0.0877504 -0.00963874 -5.37349e-20)
(-0.0973244 -0.00984837 -1.76519e-20)
(-0.00117557 -0.000651118 -2.28354e-21)
(-0.00657623 -0.00166758 7.2758e-21)
(-0.0167152 -0.0024257 -4.54829e-21)
(-0.028745 -0.00296204 3.5188e-21)
(-0.0416085 -0.00330115 -1.68636e-20)
(-0.054464 -0.00349153 -4.0832e-21)
(-0.0667382 -0.00360324 -5.33623e-21)
(-0.0781876 -0.00372153 -1.70317e-20)
(-0.0888321 -0.00393282 -1.23468e-21)
(-0.0988889 -0.00432762 1.84794e-20)
(-0.107913 0.000862769 -8.7894e-22)
(-0.116106 0.000274052 3.49402e-21)
(-0.124296 -0.00043604 7.39585e-23)
(-0.132494 -0.00125153 -3.63394e-21)
(-0.140688 -0.00217639 4.1993e-21)
(-0.14886 -0.00321152 -1.66555e-22)
(-0.156999 -0.00436086 -7.16501e-22)
(-0.165087 -0.00562007 -7.80433e-22)
(-0.173106 -0.006977 6.67019e-22)
(-0.181036 -0.00840912 1.48342e-21)
(-0.188861 -0.00988185 -1.58056e-21)
(-0.196562 -0.0113463 -4.39632e-22)
(-0.204127 -0.0127374 4.87425e-22)
(-0.211541 -0.0139721 3.14757e-22)
(-0.218792 -0.0149476 -3.35859e-22)
(-0.225867 -0.0155436 7.08483e-23)
(-0.232752 -0.0156253 -1.41759e-21)
(-0.239427 -0.015047 7.09815e-22)
(-0.245867 -0.0136601 6.39119e-22)
(-0.252038 -0.0113244 -9.2764e-22)
(-0.257894 -0.00792219 1.61054e-21)
(-0.26338 -0.00337124 -3.92686e-23)
(-0.26842 0.00233949 -2.18824e-21)
(-0.272925 0.00909522 1.41525e-21)
(-0.276777 0.0167389 7.21847e-22)
(-0.279837 0.0249663 -1.24968e-21)
(-0.281935 0.0333493 4.21961e-22)
(-0.282903 0.041318 7.6343e-22)
(-0.282491 0.0482031 5.35279e-23)
(-0.280507 0.0532254 -5.42714e-22)
(-0.276536 0.0556363 6.05496e-22)
(-0.270452 0.0546702 1.0819e-21)
(-0.261564 0.0498657 -5.21817e-23)
(-0.250045 0.0408684 -7.36203e-22)
(-0.235034 0.0280038 1.97317e-22)
(-0.217028 0.0118382 3.25389e-22)
(-0.196239 -0.00624346 -2.83543e-22)
(-0.170786 -0.0239934 3.24929e-22)
(-0.148352 -0.0403251 -3.92162e-22)
(-0.110096 -0.0475009 -3.69083e-22)
(-0.0965648 -0.0490497 -7.54604e-23)
(-0.0230269 -0.0273779 2.70939e-24)
(-0.106384 0.00663386 -2.5077e-20)
(-0.114498 0.00593206 1.07804e-20)
(-0.122585 0.00505109 2.55244e-21)
(-0.130694 0.00405364 9.74658e-21)
(-0.138813 0.0029412 -5.58776e-21)
(-0.146918 0.00171647 9.0286e-22)
(-0.154996 0.000374505 -5.96691e-21)
(-0.163027 -0.00108132 -1.63595e-21)
(-0.170991 -0.00263822 -1.44191e-21)
(-0.178865 -0.00427329 -1.88137e-21)
(-0.186632 -0.00595082 1.38356e-20)
(-0.194274 -0.00762063 -1.80524e-20)
(-0.201775 -0.00921593 3.128e-21)
(-0.20912 -0.0106535 1.19132e-20)
(-0.216297 -0.0118289 -1.04158e-20)
(-0.223293 -0.0126221 -9.07877e-23)
(-0.230093 -0.0129 8.66291e-21)
(-0.236679 -0.0125178 1.8177e-21)
(-0.243026 -0.0113287 -6.89506e-21)
(-0.249102 -0.00919479 -1.07151e-21)
(-0.254858 -0.00599916 4.86399e-21)
(-0.26024 -0.00165116 -8.00856e-22)
(-0.265176 0.00381151 8.37992e-22)
(-0.269564 0.0103139 1.00738e-22)
(-0.273267 0.0176813 -2.79679e-21)
(-0.276127 0.0256065 2.43687e-23)
(-0.277951 0.0336564 -6.55777e-23)
(-0.27854 0.0412617 1.89245e-21)
(-0.277612 0.0477409 -7.66365e-22)
(-0.274947 0.0523238 1.79928e-21)
(-0.270107 0.0542353 1.98246e-22)
(-0.262961 0.0527518 -3.05926e-22)
(-0.252839 0.047356 8.87971e-23)
(-0.239965 0.0378183 1.30191e-21)
(-0.223557 0.0243458 -1.02944e-21)
(-0.204258 0.00778676 1.51249e-22)
(-0.182383 -0.0108304 -4.73561e-22)
(-0.156301 -0.0287039 -7.32376e-22)
(-0.1337 -0.0455451 2.79377e-22)
(-0.0960569 -0.0525205 -1.57926e-22)
(-0.0833614 -0.0555303 1.48148e-22)
(-0.0106772 -0.0337819 -6.34502e-24)
(-0.103128 0.0122724 1.77961e-20)
(-0.111052 0.011472 -3.24342e-20)
(-0.118898 0.0104413 2.02944e-20)
(-0.126788 0.00928025 4.47731e-21)
(-0.134709 0.00799411 3.55003e-21)
(-0.14263 0.00658804 -1.5954e-20)
(-0.150531 0.00505953 9.50078e-21)
(-0.158389 0.00341112 -1.40563e-20)
(-0.166179 0.0016558 3.36832e-20)
(-0.17388 -0.000182271 -2.27258e-20)
(-0.18147 -0.00206563 1.1813e-20)
(-0.188931 -0.00394356 -3.00844e-21)
(-0.196246 -0.00574788 2.71671e-21)
(-0.203398 -0.00739645 -3.00992e-21)
(-0.210372 -0.00877881 -1.00384e-20)
(-0.217157 -0.00977654 5.24142e-21)
(-0.223739 -0.0102588 -7.4484e-21)
(-0.230097 -0.010081 3.66767e-21)
(-0.236209 -0.00909749 -2.19737e-21)
(-0.242039 -0.00717167 -1.96566e-21)
(-0.247538 -0.00418759 4.37014e-21)
(-0.252662 -4.87428e-05 6.73239e-22)
(-0.257335 0.00515975 -1.57854e-22)
(-0.261432 0.0114005 -3.14413e-21)
(-0.264812 0.0184832 6.94678e-21)
(-0.267298 0.026096 -1.6551e-21)
(-0.268673 0.0337995 -9.99057e-22)
(-0.268709 0.0410242 2.1987e-21)
(-0.267096 0.0470773 -3.68053e-21)
(-0.26359 0.0511978 -2.50985e-21)
(-0.257732 0.0525873 4.00148e-21)
(-0.249402 0.0505669 -4.34389e-21)
(-0.237933 0.0445685 8.04116e-23)
(-0.223635 0.0344917 6.63515e-22)
(-0.205754 0.020432 2.06275e-21)
(-0.185142 0.00356948 7.50692e-22)
(-0.162129 -0.0155774 1.10676e-21)
(-0.135377 -0.0334812 1.03503e-21)
(-0.112534 -0.0507495 -2.94893e-23)
(-0.0753954 -0.0574234 9.26112e-22)
(-0.0634327 -0.0619363 1.42411e-22)
(0.00792362 -0.0405468 -7.27591e-23)
(-0.0981153 0.0176701 1.10365e-21)
(-0.105745 0.0167907 -1.24612e-20)
(-0.113219 0.0156417 2.30341e-20)
(-0.120764 0.0143434 -6.07117e-21)
(-0.128372 0.012902 -1.2673e-20)
(-0.135993 0.0113297 2.82554e-20)
(-0.143604 0.00962481 -1.27086e-20)
(-0.151176 0.00779041 -2.47333e-20)
(-0.15868 0.00584016 6.47587e-21)
(-0.166093 0.00380052 1.07523e-21)
(-0.173392 0.00171163 -5.64847e-21)
(-0.180557 -0.000372444 1.79249e-20)
(-0.18757 -0.00238677 4.83687e-21)
(-0.194411 -0.00425013 -6.76556e-21)
(-0.201062 -0.00585164 -2.34838e-22)
(-0.207516 -0.00706092 -9.5112e-21)
(-0.213754 -0.00775555 1.94854e-20)
(-0.219755 -0.00779018 -9.19159e-21)
(-0.225497 -0.00701974 -1.09722e-20)
(-0.230944 -0.00530759 7.31716e-21)
(-0.236039 -0.00253867 4.76787e-21)
(-0.240758 0.00136162 -1.0697e-21)
(-0.245014 0.00632531 6.5845e-21)
(-0.248662 0.0122988 -5.98715e-21)
(-0.251557 0.0190901 -9.90186e-22)
(-0.253506 0.0263818 -2.61843e-21)
(-0.254268 0.0337279 1.10121e-20)
(-0.253594 0.0405583 -7.14142e-21)
(-0.251146 0.046169 -3.64391e-21)
(-0.246666 0.0498097 4.52088e-21)
(-0.23967 0.0506602 -3.09069e-21)
(-0.230066 0.04809 1.69169e-21)
(-0.217175 0.041484 -9.44995e-22)
(-0.201421 0.0308754 5.32023e-21)
(-0.182022 0.0162513 -4.87368e-21)
(-0.16012 -0.000944917 8.67906e-22)
(-0.135954 -0.0204995 -2.68337e-21)
(-0.108502 -0.0383394 -1.52208e-21)
(-0.0853477 -0.055961 -1.15212e-21)
(-0.0486101 -0.0622177 -1.0927e-21)
(-0.0372015 -0.0683288 3.12141e-22)
(0.0323773 -0.0466055 5.12633e-23)
(-0.0912911 0.0227282 7.75751e-21)
(-0.0985378 0.0217916 2.94482e-20)
(-0.10552 0.020565 -1.14723e-20)
(-0.112604 0.0191646 -4.79516e-20)
(-0.119789 0.0175927 5.74019e-20)
(-0.127004 0.0158723 -3.10646e-21)
(-0.134217 0.0140039 -1.80643e-20)
(-0.141395 0.0119923 1.64843e-20)
(-0.148506 0.0098533 -1.96721e-20)
(-0.155522 0.00761586 1.6976e-20)
(-0.16242 0.00532258 -2.81037e-22)
(-0.16918 0.00303135 -1.4352e-20)
(-0.175786 0.000812463 -5.25668e-21)
(-0.182211 -0.00124787 6.14395e-21)
(-0.188431 -0.00308633 1.95842e-20)
(-0.194439 -0.00451799 -3.1562e-21)
(-0.200222 -0.00543602 -2.47077e-20)
(-0.205752 -0.0056913 1.65404e-20)
(-0.211005 -0.00514159 -1.69174e-20)
(-0.215943 -0.00364836 4.97406e-21)
(-0.220511 -0.00108813 -5.13444e-21)
(-0.22469 0.00254537 5.87555e-21)
(-0.228387 0.00725829 7.75638e-21)
(-0.231445 0.0129594 6.4622e-21)
(-0.233709 0.0194539 -1.2792e-20)
(-0.234976 0.0264179 -1.07975e-21)
(-0.234983 0.0333984 5.47455e-21)
(-0.233464 0.0398247 4.68342e-21)
(-0.230054 0.0449817 -1.02637e-20)
(-0.224493 0.048131 -3.00072e-21)
(-0.21627 0.0484324 -1.88508e-21)
(-0.205336 0.0453061 2.31363e-21)
(-0.190982 0.0380946 -1.06234e-21)
(-0.173778 0.0269679 -4.51158e-21)
(-0.152877 0.0118173 -2.09107e-21)
(-0.129721 -0.00574236 6.33455e-22)
(-0.1044 -0.0256016 -1.53811e-21)
(-0.0762608 -0.043288 1.26712e-21)
(-0.0527416 -0.0612198 -1.56649e-22)
(-0.0163336 -0.0668787 2.23905e-21)
(-0.00527426 -0.0746136 -8.82359e-22)
(0.0622501 -0.0525981 5.27511e-23)
(-0.0825667 0.0273629 8.78482e-21)
(-0.089364 0.0263883 -8.88332e-20)
(-0.0957505 0.0251322 3.80514e-20)
(-0.102273 0.0236717 -1.89114e-21)
(-0.108936 0.0219991 3.61021e-20)
(-0.115643 0.0201525 -1.56859e-20)
(-0.122359 0.0181362 1.56505e-21)
(-0.129042 0.0159588 -3.27288e-20)
(-0.135658 0.0136396 3.8437e-20)
(-0.142177 0.0112105 -1.39948e-21)
(-0.148574 0.00871631 -1.46067e-20)
(-0.154827 0.00621636 -8.06075e-21)
(-0.160918 0.00378844 9.89382e-21)
(-0.166841 0.00152546 6.29163e-21)
(-0.172545 -0.00047995 1.95818e-20)
(-0.17801 -0.00217479 -2.89652e-20)
(-0.183241 -0.00333205 -4.26985e-21)
(-0.188201 -0.00382068 3.23764e-21)
(-0.192864 -0.00350016 -4.13967e-21)
(-0.197184 -0.00223335 8.64254e-21)
(-0.201124 0.000142796 7.20992e-21)
(-0.204657 0.00347045 1.12803e-21)
(-0.207673 0.00791802 -2.02375e-20)
(-0.210018 0.0133417 3.33025e-21)
(-0.211528 0.0195353 1.3974e-20)
(-0.21199 0.0261672 -7.49751e-21)
(-0.211122 0.0327773 -5.6144e-21)
(-0.208648 0.0387938 1.15952e-20)
(-0.204178 0.0434911 -1.09426e-20)
(-0.197458 0.0461438 1.38051e-20)
(-0.187948 0.0458929 6.22049e-21)
(-0.175662 0.0422115 -4.57655e-21)
(-0.15984 0.0344029 -4.04234e-23)
(-0.141222 0.0227785 -1.17374e-21)
(-0.118863 0.00716303 -6.84842e-22)
(-0.0945314 -0.0106945 5.39973e-21)
(-0.0680976 -0.0308791 3.59717e-21)
(-0.0393064 -0.0483288 -1.90886e-21)
(-0.0153785 -0.0665904 3.04145e-21)
(0.0207498 -0.071416 -2.34195e-21)
(0.0315851 -0.0806151 -5.97351e-22)
(0.0969586 -0.0586295 -8.62345e-23)
(-0.0717979 0.0315134 2.22529e-20)
(-0.078117 0.030508 -3.1327e-20)
(-0.0838243 0.0292754 -2.98789e-20)
(-0.0897012 0.0278016 -5.70857e-21)
(-0.0957577 0.0260614 5.82507e-20)
(-0.10187 0.024113 -8.39699e-20)
(-0.107996 0.0219671 4.3499e-20)
(-0.114091 0.0196378 2.44975e-20)
(-0.120118 0.0171494 6.48881e-21)
(-0.126046 0.0145376 -2.94263e-20)
(-0.131851 0.0118498 2.5887e-20)
(-0.137511 0.00914673 -1.93744e-20)
(-0.143004 0.00650455 4.79751e-21)
(-0.148311 0.00401872 7.89577e-21)
(-0.153434 0.00181954 3.01264e-21)
(-0.158312 -5.24046e-05 -4.34945e-20)
(-0.162903 -0.0014569 2.12165e-20)
(-0.167215 -0.00219883 1.18445e-20)
(-0.171209 -0.00212029 -2.34417e-20)
(-0.174821 -0.0010895 1.14901e-20)
(-0.178066 0.00101612 1.47011e-20)
(-0.18088 0.00409221 4.11062e-21)
(-0.183109 0.00827418 -1.46653e-21)
(-0.184645 0.0134161 7.48093e-22)
(-0.185306 0.019306 2.37272e-21)
(-0.184867 0.0256033 1.16017e-21)
(-0.183032 0.0318409 4.05579e-21)
(-0.17952 0.0374465 -9.42271e-21)
(-0.173919 0.0416834 2.86247e-22)
(-0.165992 0.0438406 -6.99085e-21)
(-0.155165 0.0430414 8.41648e-21)
(-0.141536 0.0388129 -6.12712e-22)
(-0.124267 0.0304215 -4.46219e-21)
(-0.104297 0.0183233 -8.06772e-21)
(-0.0805607 0.00228055 7.67858e-21)
(-0.0551636 -0.015838 -4.15197e-21)
(-0.02769 -0.0363143 5.80713e-21)
(0.00168042 -0.0534513 -1.14246e-21)
(0.026044 -0.0719993 -1.00047e-21)
(0.0619487 -0.0759817 -1.6012e-22)
(0.072607 -0.0863207 1.42175e-21)
(0.135825 -0.0645985 1.09814e-22)
(-0.0587611 0.0351502 -8.18665e-20)
(-0.0646302 0.0340962 6.61034e-21)
(-0.0695973 0.0329421 1.0577e-20)
(-0.0747684 0.0315038 3.48657e-20)
(-0.0801537 0.0297295 -5.29357e-20)
(-0.0855952 0.0277047 -1.35399e-20)
(-0.0910511 0.0254488 2.68215e-20)
(-0.0964746 0.0229837 -8.02522e-21)
(-0.101828 0.0203398 -1.70031e-20)
(-0.107083 0.0175573 1.58901e-20)
(-0.112217 0.0146866 4.11711e-21)
(-0.117207 0.01179 -1.65845e-20)
(-0.122033 0.00894366 1.88016e-20)
(-0.126673 0.00623828 -1.27437e-20)
(-0.131114 0.00378211 5.78072e-22)
(-0.135337 0.00173942 4.00468e-20)
(-0.139277 0.00016321 -2.90346e-20)
(-0.142889 -0.000821078 9.78309e-21)
(-0.14616 -0.0010075 -9.00451e-21)
(-0.149033 -0.000219225 9.90334e-21)
(-0.151516 0.00154148 -4.15312e-20)
(-0.153536 0.00439941 1.94015e-20)
(-0.154934 0.00830995 1.5089e-20)
(-0.1556 0.0131655 -4.191e-21)
(-0.155344 0.0187492 6.78619e-22)
(-0.153941 0.024711 -9.1987e-22)
(-0.151077 0.0305769 -1.25142e-20)
(-0.146475 0.035774 -2.54769e-21)
(-0.1397 0.0395551 1.58686e-21)
(-0.130546 0.0412236 2.22582e-21)
(-0.118399 0.0398869 2.74847e-21)
(-0.10346 0.0351261 5.1193e-21)
(-0.0847954 0.0261706 -1.46239e-21)
(-0.0635582 0.0136266 8.48984e-21)
(-0.0385513 -0.00291291 -1.29992e-21)
(-0.0122156 -0.0211769 -7.18048e-21)
(0.0161925 -0.0418589 1.99617e-21)
(0.0460481 -0.0586449 -2.75429e-21)
(0.0707991 -0.0773688 -4.38321e-21)
(0.106521 -0.0806391 -5.26156e-22)
(0.117056 -0.0917923 3.75073e-22)
(0.178132 -0.0704472 3.39238e-23)
(-0.0431265 0.0382343 1.01111e-20)
(-0.0486541 0.037124 -4.62528e-20)
(-0.0528466 0.0361037 2.52856e-20)
(-0.0572824 0.0347444 2.24298e-21)
(-0.0619559 0.0329654 -1.05418e-20)
(-0.06667 0.0308881 7.3918e-20)
(-0.0713889 0.0285423 9.86256e-21)
(-0.076069 0.0259587 -3.83695e-20)
(-0.0806763 0.0231754 -3.04667e-20)
(-0.0851868 0.0202376 3.96985e-20)
(-0.0895813 0.0171984 -3.30288e-20)
(-0.093841 0.0141214 2.79306e-20)
(-0.0979452 0.011083 -3.22646e-20)
(-0.101872 0.00817358 -2.59171e-21)
(-0.105601 0.00550006 8.00702e-22)
(-0.109102 0.00319951 6.42892e-20)
(-0.112348 0.00142968 -1.02165e-20)
(-0.115273 0.000267764 7.43283e-21)
(-0.117804 -0.000151532 -5.55471e-22)
(-0.119926 0.000362574 -6.68315e-21)
(-0.121632 0.00180883 -1.37432e-21)
(-0.122826 0.00439173 -1.25915e-20)
(-0.123371 0.00802271 2.83035e-20)
(-0.123138 0.012586 6.96384e-21)
(-0.121938 0.0178613 -1.38525e-20)
(-0.11954 0.0234876 9.21363e-21)
(-0.115618 0.0289841 -1.40029e-20)
(-0.109903 0.0337786 1.26929e-20)
(-0.101942 0.0371125 -4.67767e-21)
(-0.0915686 0.038304 4.41187e-21)
(-0.0781229 0.0364463 -3.33571e-21)
(-0.0619307 0.0311695 -2.94916e-21)
(-0.0419415 0.0216813 1.15028e-20)
(-0.0195595 0.00873139 -1.60873e-21)
(0.00660516 -0.00830335 2.97056e-21)
(0.0337617 -0.0266455 2.74757e-21)
(0.0629608 -0.0475039 -5.1925e-21)
(0.0931693 -0.0638965 3.58543e-21)
(0.118227 -0.0827434 3.61954e-21)