/*--------------------------------*- C++ -*----------------------------------*\
  =========                 |
  \\      /  F ield         | OpenFOAM: The Open Source CFD Toolbox
   \\    /   O peration     | Website:  https://openfoam.org
    \\  /    A nd           | Version:  7
     \\/     M anipulation  |
\*---------------------------------------------------------------------------*/
FoamFile
{
    version     2.0;
    format      ascii;
    class       volScalarField;
    location    "15";
    object      p;
}
// * * * * * * * * * * * * * * * * * * * * * * * * * * * * * * * * * * * * * //

dimensions      [0 2 -2 0 0 0 0];

internalField   nonuniform List<scalar> 
6386
(
-0.272797
-0.274882
-0.275867
-0.276684
-0.277422
-0.27812
-0.278815
-0.27953
-0.28028
-0.28111
-0.27301
-0.275067
-0.276037
-0.27684
-0.277564
-0.278247
-0.278926
-0.279622
-0.280348
-0.281133
-0.273434
-0.275434
-0.276375
-0.27715
-0.277846
-0.2785
-0.279144
-0.279803
-0.280481
-0.281176
-0.274058
-0.275977
-0.276873
-0.277607
-0.27826
-0.278868
-0.279461
-0.280062
-0.280667
-0.28122
-0.274871
-0.276686
-0.277524
-0.2782
-0.278794
-0.27934
-0.279861
-0.280383
-0.280893
-0.281244
-0.275858
-0.277548
-0.278315
-0.278919
-0.279438
-0.279902
-0.280331
-0.280747
-0.281144
-0.281216
-0.277
-0.278552
-0.279233
-0.27975
-0.280175
-0.28054
-0.280852
-0.281135
-0.281406
-0.281098
-0.278282
-0.279683
-0.280267
-0.280679
-0.280993
-0.281237
-0.281409
-0.281526
-0.281672
-0.280832
-0.279687
-0.28093
-0.281403
-0.281695
-0.281878
-0.281981
-0.281989
-0.281905
-0.281946
-0.280326
-0.281203
-0.282282
-0.282633
-0.282787
-0.282819
-0.282761
-0.282583
-0.282257
-0.282239
-0.279511
-0.28282
-0.283732
-0.283947
-0.283946
-0.283807
-0.283569
-0.283187
-0.282572
-0.282501
-0.278762
-0.284532
-0.285276
-0.285341
-0.285165
-0.284837
-0.284401
-0.283801
-0.282884
-0.282583
-0.277862
-0.28634
-0.286913
-0.286812
-0.286443
-0.285905
-0.285254
-0.284422
-0.283241
-0.282652
-0.27665
-0.288251
-0.288647
-0.288364
-0.28778
-0.287011
-0.286129
-0.285052
-0.283608
-0.282772
-0.275173
-0.290278
-0.29049
-0.290004
-0.289179
-0.288156
-0.287028
-0.285698
-0.284001
-0.282919
-0.273548
-0.292455
-0.291744
-0.290646
-0.289348
-0.287953
-0.286358
-0.28445
-0.283018
-0.271961
-0.294565
-0.293593
-0.292201
-0.290594
-0.28891
-0.287028
-0.284988
-0.282933
-0.270598
-0.296843
-0.295584
-0.29386
-0.291912
-0.289912
-0.287709
-0.285646
-0.282449
-0.269569
-0.297745
-0.295649
-0.293327
-0.29098
-0.28842
-0.286452
-0.281469
-0.269658
-0.300106
-0.297601
-0.294871
-0.292149
-0.289197
-0.287339
-0.280382
-0.27412
-0.299758
-0.296586
-0.293457
-0.290085
-0.288096
-0.279851
-0.285081
-0.298522
-0.294951
-0.291134
-0.288613
-0.280107
-0.283999
-0.300732
-0.296677
-0.292375
-0.289007
-0.280559
-0.281098
-0.298676
-0.29381
-0.289433
-0.280841
-0.278279
-0.295428
-0.28992
-0.280856
-0.275415
-0.290436
-0.280534
-0.272602
-0.279858
-0.26976
-0.266818
-0.278853
-0.266843
-0.279894
-0.269788
-0.29048
-0.280573
-0.272634
-0.295475
-0.289964
-0.280898
-0.275451
-0.298723
-0.293857
-0.28948
-0.280886
-0.278318
-0.300778
-0.296724
-0.292423
-0.289055
-0.280606
-0.281141
-0.298568
-0.294998
-0.291182
-0.288662
-0.280156
-0.284046
-0.299804
-0.296632
-0.293504
-0.290134
-0.288147
-0.279902
-0.285132
-0.300151
-0.297646
-0.294916
-0.292195
-0.289246
-0.287391
-0.280435
-0.274172
-0.297789
-0.295693
-0.293372
-0.291027
-0.288469
-0.286504
-0.281524
-0.269709
-0.296886
-0.295628
-0.293904
-0.291957
-0.289958
-0.287758
-0.285699
-0.282505
-0.26962
-0.294606
-0.293635
-0.292244
-0.290638
-0.288956
-0.287076
-0.285039
-0.282989
-0.270649
-0.292481
-0.292495
-0.291784
-0.290687
-0.28939
-0.287997
-0.286405
-0.284501
-0.283074
-0.272011
-0.290316
-0.290528
-0.290043
-0.289218
-0.288197
-0.287071
-0.285744
-0.28405
-0.282973
-0.273598
-0.288288
-0.288684
-0.288401
-0.287817
-0.28705
-0.28617
-0.285097
-0.283656
-0.282825
-0.275222
-0.286375
-0.286947
-0.286847
-0.286479
-0.285943
-0.285293
-0.284465
-0.283287
-0.282702
-0.276699
-0.284564
-0.285308
-0.285373
-0.285199
-0.284872
-0.284438
-0.283841
-0.282927
-0.282631
-0.277908
-0.282849
-0.283762
-0.283977
-0.283977
-0.28384
-0.283604
-0.283224
-0.282612
-0.282545
-0.278805
-0.28123
-0.282309
-0.28266
-0.282816
-0.282849
-0.282793
-0.282618
-0.282295
-0.282279
-0.279551
-0.279711
-0.280954
-0.281428
-0.281721
-0.281905
-0.28201
-0.28202
-0.281939
-0.281983
-0.280364
-0.278303
-0.279705
-0.280289
-0.280702
-0.281017
-0.281263
-0.281437
-0.281557
-0.281705
-0.280867
-0.277018
-0.27857
-0.279252
-0.27977
-0.280196
-0.280562
-0.280876
-0.281161
-0.281435
-0.281129
-0.275873
-0.277564
-0.278331
-0.278936
-0.279455
-0.279921
-0.280351
-0.28077
-0.281169
-0.281243
-0.274884
-0.276699
-0.277537
-0.278214
-0.278809
-0.279356
-0.279879
-0.280402
-0.280914
-0.281266
-0.274068
-0.275987
-0.276884
-0.277617
-0.278271
-0.27888
-0.279474
-0.280077
-0.280683
-0.281238
-0.273441
-0.275441
-0.276382
-0.277158
-0.277854
-0.278508
-0.279154
-0.279814
-0.280492
-0.281188
-0.273014
-0.275071
-0.276041
-0.276845
-0.277569
-0.278253
-0.278932
-0.279629
-0.280355
-0.281141
-0.272798
-0.274884
-0.275869
-0.276686
-0.277424
-0.278122
-0.278817
-0.279532
-0.280283
-0.281112
-0.282127
-0.283038
-0.284098
-0.285328
-0.286756
-0.288418
-0.29035
-0.29259
-0.295176
-0.298144
-0.301529
-0.305352
-0.309619
-0.314312
-0.319372
-0.324688
-0.33008
-0.335284
-0.339932
-0.343538
-0.345514
-0.345164
-0.341626
-0.334093
-0.321865
-0.304343
-0.281272
-0.252927
-0.219995
-0.184018
-0.146415
-0.109504
-0.07467
-0.0436154
-0.0179511
0.00311617
0.0163965
0.0272563
0.0278027
0.0305156
0.0185849
0.0150772
-0.282202
-0.283091
-0.284141
-0.285363
-0.286785
-0.288443
-0.290371
-0.292609
-0.295194
-0.298164
-0.301553
-0.305383
-0.309662
-0.314371
-0.319453
-0.324797
-0.330225
-0.335471
-0.340167
-0.343828
-0.345862
-0.345574
-0.342098
-0.334625
-0.322447
-0.304963
-0.281908
-0.25356
-0.2206
-0.184583
-0.146925
-0.109956
-0.0750543
-0.0439793
-0.0182546
0.00285597
0.0161716
0.0270622
0.0276383
0.030371
0.0184873
0.0149906
-0.282346
-0.283192
-0.28422
-0.28543
-0.28684
-0.288487
-0.290408
-0.29264
-0.295223
-0.298194
-0.301589
-0.305431
-0.30973
-0.314469
-0.31959
-0.324986
-0.330479
-0.335803
-0.340591
-0.344356
-0.346503
-0.346336
-0.342982
-0.335632
-0.323557
-0.30615
-0.283135
-0.254791
-0.221786
-0.185699
-0.147938
-0.110865
-0.0758455
-0.0446928
-0.0188664
0.00232928
0.0157158
0.0266685
0.0273066
0.0300798
0.0182926
0.0148192
-0.282545
-0.283327
-0.284325
-0.285515
-0.286907
-0.288539
-0.290448
-0.292671
-0.295248
-0.298219
-0.30162
-0.305477
-0.309802
-0.314579
-0.319755
-0.325223
-0.330806
-0.33624
-0.341158
-0.345071
-0.34738
-0.347385
-0.34421
-0.33704
-0.325118
-0.307831
-0.284883
-0.256554
-0.223495
-0.187318
-0.14942
-0.112203
-0.0770269
-0.0457403
-0.0197785
0.00154035
0.0150315
0.026076
0.0268095
0.0296427
0.0180044
0.014566
-0.282778
-0.283479
-0.284437
-0.285602
-0.28697
-0.288582
-0.290474
-0.292683
-0.29525
-0.298218
-0.301623
-0.305496
-0.309849
-0.314671
-0.31991
-0.325464
-0.331156
-0.336726
-0.341803
-0.345902
-0.348415
-0.348638
-0.34569
-0.338751
-0.327031
-0.309907
-0.287057
-0.258764
-0.225651
-0.189376
-0.151319
-0.113935
-0.0785631
-0.0471102
-0.0209796
0.000495652
0.0141224
0.025286
0.0261495
0.0290614
0.0176272
0.0142359
-0.283028
-0.283628
-0.284539
-0.285674
-0.287013
-0.288599
-0.290467
-0.292656
-0.295209
-0.298168
-0.301573
-0.305458
-0.309838
-0.314706
-0.320014
-0.325661
-0.331475
-0.337196
-0.342456
-0.346767
-0.349518
-0.349996
-0.347319
-0.340655
-0.329183
-0.312265
-0.289548
-0.261318
-0.228166
-0.191801
-0.15358
-0.116008
-0.0804298
-0.0487762
-0.0224558
-0.000796244
0.0129942
0.0243013
0.0253308
0.0283384
0.0171669
0.0138347
-0.28328
-0.283752
-0.284612
-0.285714
-0.287017
-0.288571
-0.29041
-0.292573
-0.295104
-0.298047
-0.301446
-0.305336
-0.309739
-0.314649
-0.320024
-0.325766
-0.331706
-0.337588
-0.343043
-0.347585
-0.350597
-0.351354
-0.34896
-0.342633
-0.331454
-0.314786
-0.292242
-0.264112
-0.230952
-0.194516
-0.156132
-0.118371
-0.0825922
-0.0507155
-0.0241906
-0.0023244
0.0116544
0.0231267
0.0243587
0.0274779
0.0166296
0.0133693
-0.283537
-0.283834
-0.284644
-0.285708
-0.28697
-0.288486
-0.290289
-0.292417
-0.294917
-0.297836
-0.30122
-0.305107
-0.309524
-0.314468
-0.319903
-0.325735
-0.331799
-0.337841
-0.343496
-0.348277
-0.351565
-0.352622
-0.350542
-0.344581
-0.333729
-0.317355
-0.295031
-0.267051
-0.23391
-0.197427
-0.158907
-0.120988
-0.0850064
-0.0529018
-0.0261648
-0.00407548
0.0101132
0.0217689
0.0232403
0.026486
0.0160219
0.0128473
-0.283888
-0.283844
-0.284623
-0.285647
-0.286863
-0.288333
-0.290092
-0.292178
-0.294638
-0.297523
-0.30088
-0.304753
-0.309172
-0.314139
-0.319622
-0.325533
-0.331711
-0.337906
-0.343757
-0.348777
-0.352349
-0.353721
-0.352066
-0.346401
-0.335908
-0.319867
-0.29781
-0.270046
-0.236911
-0.200464
-0.161867
-0.123797
-0.0876342
-0.0553052
-0.0283563
-0.0060337
0.00838291
0.0202373
0.0219841
0.0253701
0.0153507
0.0122764
-0.284434
-0.283752
-0.284556
-0.28553
-0.286692
-0.288108
-0.289814
-0.291849
-0.29426
-0.297099
-0.300418
-0.304265
-0.308671
-0.313646
-0.319162
-0.325136
-0.331414
-0.337748
-0.343783
-0.349034
-0.352886
-0.354579
-0.353284
-0.348008
-0.337909
-0.322223
-0.300464
-0.272922
-0.239989
-0.203569
-0.164936
-0.126749
-0.0904365
-0.0578953
-0.0307411
-0.00818099
0.0064785
0.0185433
0.0206005
0.0241396
0.0146228
0.0116646
-0.284267
-0.283897
-0.284423
-0.285348
-0.286459
-0.287811
-0.289457
-0.291431
-0.293782
-0.296565
-0.299834
-0.303639
-0.308018
-0.312984
-0.318515
-0.324533
-0.33089
-0.337345
-0.343546
-0.349012
-0.353133
-0.355144
-0.354205
-0.349327
-0.339627
-0.324352
-0.302961
-0.275699
-0.242987
-0.206665
-0.168057
-0.129798
-0.0933744
-0.0606404
-0.0332933
-0.0104972
0.00441692
0.0167008
0.0191012
0.0228052
0.013845
0.0110196
-0.284275
-0.283985
-0.284246
-0.285118
-0.286169
-0.287447
-0.289024
-0.290929
-0.293211
-0.295926
-0.299133
-0.302883
-0.307219
-0.312157
-0.317681
-0.323721
-0.330134
-0.336686
-0.34303
-0.348692
-0.353062
-0.355378
-0.354791
-0.350318
-0.341041
-0.326194
-0.305207
-0.278288
-0.245851
-0.209699
-0.17118
-0.1329
-0.0964094
-0.0635091
-0.0359859
-0.0129606
0.0022168
0.0147254
0.0174991
0.021379
0.0130244
0.0103489
-0.284381
-0.284047
-0.28404
-0.284846
-0.285828
-0.287022
-0.28852
-0.290348
-0.292552
-0.295191
-0.298324
-0.302006
-0.306282
-0.311175
-0.316672
-0.32271
-0.329152
-0.335774
-0.342235
-0.348066
-0.352663
-0.355269
-0.355019
-0.350945
-0.3421
-0.327702
-0.307154
-0.280632
-0.248535
-0.21262
-0.17426
-0.136013
-0.0995052
-0.0664709
-0.038792
-0.0155487
-0.000102235
0.012634
0.0158078
0.0198738
0.0121677
0.00965947
-0.284534
-0.284142
-0.283822
-0.284543
-0.285444
-0.28654
-0.287951
-0.289695
-0.291814
-0.294368
-0.297418
-0.30102
-0.305222
-0.310052
-0.315501
-0.321512
-0.327958
-0.33462
-0.341167
-0.347137
-0.351934
-0.354812
-0.354876
-0.351189
-0.342776
-0.328843
-0.308766
-0.282692
-0.250998
-0.215388
-0.177257
-0.139102
-0.102628
-0.0694963
-0.0416846
-0.0182383
-0.00251975
0.0104444
0.0140417
0.0183026
0.0112819
0.00895769
-0.284733
-0.284287
-0.283601
-0.284215
-0.285017
-0.286002
-0.287318
-0.288973
-0.291002
-0.293467
-0.296426
-0.299939
-0.304054
-0.308803
-0.314183
-0.320145
-0.326566
-0.333238
-0.33984
-0.345916
-0.350878
-0.353966
-0.354353
-0.351039
-0.343053
-0.329596
-0.310018
-0.284436
-0.253205
-0.217967
-0.180134
-0.142131
-0.105743
-0.0725534
-0.0446343
-0.0210038
-0.00501341
0.00817575
0.0122157
0.0166792
0.0103736
0.00824939
-0.28497
-0.284456
-0.28337
-0.283861
-0.284539
-0.285398
-0.286617
-0.288181
-0.29012
-0.292491
-0.295356
-0.298771
-0.302788
-0.307442
-0.312735
-0.318623
-0.324993
-0.331645
-0.338268
-0.344416
-0.349507
-0.352787
-0.353455
-0.350491
-0.342923
-0.329945
-0.310888
-0.285835
-0.255122
-0.220317
-0.182847
-0.145057
-0.108808
-0.0756049
-0.0476077
-0.023817
-0.00755935
0.00584858
0.0103452
0.0150173
0.00944962
0.00753982
-0.285186
-0.284536
-0.283084
-0.283462
-0.283993
-0.284719
-0.285841
-0.287318
-0.289168
-0.291447
-0.294215
-0.297529
-0.30144
-0.305987
-0.311175
-0.316969
-0.323262
-0.329863
-0.336473
-0.342656
-0.347846
-0.351295
-0.352191
-0.349554
-0.342387
-0.329886
-0.311364
-0.286874
-0.256727
-0.222416
-0.185377
-0.147862
-0.111808
-0.0786369
-0.0505922
-0.0266636
-0.010145
0.00347784
0.00844105
0.0133299
0.00851525
0.00683382
-0.285298
-0.284387
-0.282704
-0.283009
-0.283365
-0.283952
-0.284982
-0.286375
-0.288138
-0.290327
-0.292997
-0.296205
-0.300003
-0.30443
-0.309499
-0.315178
-0.321369
-0.327893
-0.334459
-0.340648
-0.345959
-0.349463
-0.350548
-0.348221
-0.341453
-0.329443
-0.31149
-0.287617
-0.258107
-0.224364
-0.187828
-0.150646
-0.114832
-0.0817199
-0.0536409
-0.029574
-0.0127885
0.00106179
0.00650412
0.0116264
0.00757438
0.00613531
-0.286127
-0.283967
-0.282171
-0.282399
-0.282535
-0.282983
-0.283933
-0.285254
-0.286939
-0.28904
-0.291612
-0.294709
-0.298385
-0.30268
-0.30761
-0.313151
-0.319214
-0.325629
-0.332124
-0.338291
-0.343539
-0.34723
-0.348479
-0.346463
-0.340122
-0.32865
-0.311335
-0.288156
-0.259362
-0.226259
-0.190284
-0.153475
-0.11792
-0.0848746
-0.0567557
-0.032545
-0.0154768
-0.00139139
0.0045477
0.00991153
0.00663594
0.00544478
-0.285995
-0.281529
-0.280707
-0.281168
-0.281209
-0.281633
-0.282575
-0.283884
-0.285543
-0.287602
-0.290113
-0.293133
-0.296712
-0.300893
-0.305693
-0.311093
-0.31701
-0.323282
-0.329642
-0.335691
-0.340974
-0.344876
-0.346203
-0.344367
-0.338331
-0.327274
-0.310477
-0.287883
-0.259725
-0.227221
-0.191815
-0.155452
-0.120255
-0.0874352
-0.059396
-0.035212
-0.0179377
-0.00374754
0.00267282
0.00820048
0.00572667
0.00475721
-0.270662
-0.272582
-0.277459
-0.279291
-0.279627
-0.280179
-0.281218
-0.282604
-0.284306
-0.286382
-0.288895
-0.2919
-0.295447
-0.299575
-0.304304
-0.30961
-0.315414
-0.321555
-0.327773
-0.333702
-0.338787
-0.342356
-0.343551
-0.341593
-0.33549
-0.32445
-0.307818
-0.285533
-0.257888
-0.226024
-0.191398
-0.155841
-0.121412
-0.0893087
-0.0617132
-0.0379735
-0.0206445
-0.00660326
0.000383701
0.00597184
0.00457662
0.00386362
-0.269784
-0.26999
-0.27434
-0.276316
-0.276741
-0.27734
-0.278517
-0.280089
-0.281952
-0.284144
-0.286735
-0.28978
-0.29332
-0.297385
-0.301985
-0.307091
-0.312616
-0.318399
-0.324175
-0.329561
-0.334084
-0.337086
-0.33777
-0.335354
-0.328953
-0.317844
-0.301459
-0.279746
-0.253042
-0.222368
-0.189142
-0.155011
-0.121931
-0.0910223
-0.0642503
-0.0411986
-0.0239596
-0.0101007
-0.00250699
0.00325603
0.00308647
0.00284071
-0.266354
-0.266586
-0.269435
-0.271318
-0.272193
-0.27314
-0.274577
-0.276394
-0.278475
-0.280838
-0.283551
-0.286666
-0.290217
-0.294223
-0.298683
-0.30356
-0.308761
-0.314122
-0.319382
-0.324157
-0.328025
-0.330378
-0.330459
-0.327537
-0.320829
-0.30969
-0.293635
-0.272625
-0.247017
-0.217718
-0.18607
-0.153549
-0.121967
-0.0923867
-0.0665455
-0.0442474
-0.0271759
-0.0135047
-0.00537064
0.00061744
0.00158215
0.001909
-0.260231
-0.261487
-0.263134
-0.264656
-0.265962
-0.267399
-0.269176
-0.271254
-0.273563
-0.276114
-0.278963
-0.282156
-0.285718
-0.289657
-0.293963
-0.298592
-0.303446
-0.308363
-0.313083
-0.31724
-0.320448
-0.322145
-0.321639
-0.318259
-0.311314
-0.300235
-0.284618
-0.264438
-0.240053
-0.212275
-0.182333
-0.151557
-0.121582
-0.0934262
-0.0685963
-0.0470993
-0.0302581
-0.0167775
-0.00816389
-0.00191422
9.83403e-05
0.00106637
-0.251571
-0.254349
-0.255598
-0.256778
-0.258336
-0.260227
-0.262365
-0.2647
-0.267217
-0.269941
-0.272915
-0.276172
-0.279728
-0.283583
-0.287714
-0.292072
-0.296558
-0.30101
-0.305184
-0.30873
-0.311294
-0.312362
-0.311318
-0.307554
-0.300467
-0.289561
-0.274506
-0.25529
-0.232255
-0.206124
-0.177997
-0.149069
-0.120783
-0.0941197
-0.0703668
-0.0497054
-0.0331568
-0.0198711
-0.0108475
-0.00430991
-0.00134268
0.000308858
-0.241107
-0.245408
-0.246874
-0.24795
-0.249667
-0.251918
-0.254397
-0.256978
-0.259673
-0.262533
-0.265596
-0.268884
-0.272402
-0.276138
-0.280065
-0.284126
-0.288221
-0.292197
-0.295828
-0.298789
-0.300747
-0.301239
-0.299725
-0.29567
-0.288549
-0.277936
-0.263562
-0.245425
-0.223839
-0.199442
-0.173193
-0.146165
-0.11961
-0.0944699
-0.0718373
-0.0520315
-0.0358324
-0.0227477
-0.0133868
-0.00654752
-0.00272119
-0.000367629
-0.229861
-0.235244
-0.237209
-0.238439
-0.24032
-0.242841
-0.245605
-0.248407
-0.251251
-0.254205
-0.257314
-0.260593
-0.264034
-0.267619
-0.271313
-0.275055
-0.278747
-0.282247
-0.285357
-0.287769
-0.289174
-0.289155
-0.287254
-0.283004
-0.275952
-0.265736
-0.252133
-0.23515
-0.215061
-0.192423
-0.168062
-0.142932
-0.118109
-0.0944894
-0.072998
-0.0540554
-0.0382548
-0.0253803
-0.015754
-0.00861233
-0.00402049
-0.00096844
-0.21838
-0.224419
-0.226945
-0.228495
-0.230578
-0.233306
-0.23629
-0.239274
-0.242239
-0.245256
-0.248376
-0.251611
-0.254947
-0.258357
-0.261802
-0.26522
-0.268515
-0.271549
-0.274135
-0.276082
-0.276996
-0.276542
-0.274337
-0.26998
-0.263082
-0.253336
-0.240554
-0.224749
-0.206152
-0.185248
-0.162732
-0.139453
-0.116327
-0.0941969
-0.0738473
-0.0557657
-0.0404038
-0.0277514
-0.0179279
-0.0104958
-0.00522779
-0.00149961
-0.206977
-0.213373
-0.216398
-0.218324
-0.220633
-0.22353
-0.226674
-0.2298
-0.232861
-0.235918
-0.239026
-0.242196
-0.245411
-0.248639
-0.251836
-0.254942
-0.257862
-0.260472
-0.26261
-0.264102
-0.264588
-0.263778
-0.261349
-0.25696
-0.250276
-0.241041
-0.229094
-0.214449
-0.197296
-0.178055
-0.157306
-0.135796
-0.114304
-0.0936136
-0.0743902
-0.0571594
-0.0422678
-0.0298519
-0.0198943
-0.012194
-0.00633423
-0.00196707
-0.195858
-0.202388
-0.205798
-0.20808
-0.210614
-0.213653
-0.216915
-0.220144
-0.223277
-0.226358
-0.22944
-0.232535
-0.235624
-0.238673
-0.241636
-0.244452
-0.247036
-0.249273
-0.251016
-0.252098
-0.252224
-0.251137
-0.248556
-0.244195
-0.237768
-0.22906
-0.217932
-0.2044
-0.188616
-0.17094
-0.151854
-0.132013
-0.112074
-0.0927609
-0.0746359
-0.0582404
-0.0438424
-0.0316791
-0.0216447
-0.0137068
-0.00733437
-0.00237634
-0.185099
-0.191619
-0.195302
-0.197883
-0.200617
-0.203771
-0.207116
-0.210416
-0.213596
-0.216688
-0.219736
-0.222752
-0.225719
-0.228599
-0.231347
-0.233905
-0.236192
-0.238106
-0.239509
-0.240245
-0.24008
-0.238785
-0.236116
-0.23183
-0.225687
-0.217506
-0.207167
-0.194685
-0.18018
-0.163961
-0.146423
-0.128142
-0.109667
-0.0916595
-0.074597
-0.0590172
-0.045129
-0.0332348
-0.0231757
-0.0150365
-0.00822562
-0.00273229
-0.174736
-0.181154
-0.185012
-0.187822
-0.190716
-0.193957
-0.197355
-0.200696
-0.203901
-0.206989
-0.209997
-0.212934
-0.215784
-0.21851
-0.221066
-0.223397
-0.225428
-0.227064
-0.228184
-0.228642
-0.228249
-0.226808
-0.224105
-0.219935
-0.214092
-0.206429
-0.196838
-0.185337
-0.172017
-0.157144
-0.14104
-0.124206
-0.107103
-0.0903292
-0.0742878
-0.0595015
-0.0461333
-0.0345249
-0.0244875
-0.0161869
-0.00900762
-0.00303911
-0.164795
-0.171045
-0.174997
-0.177969
-0.180976
-0.184271
-0.187693
-0.191046
-0.194254
-0.197324
-0.200284
-0.203143
-0.205883
-0.208468
-0.210855
-0.212989
-0.214802
-0.216207
-0.217095
-0.217339
-0.216779
-0.215244
-0.212551
-0.208526
-0.202995
-0.195834
-0.186952
-0.176362
-0.164137
-0.150502
-0.13572
-0.120226
-0.104402
-0.0887889
-0.0737245
-0.0597072
-0.0468642
-0.0355573
-0.0255835
-0.0171635
-0.00968173
-0.00330041
-0.155289
-0.161325
-0.165302
-0.168374
-0.17145
-0.174765
-0.178181
-0.181522
-0.18471
-0.187746
-0.190652
-0.193432
-0.196067
-0.198525
-0.200762
-0.202727
-0.204357
-0.205573
-0.206278
-0.206361
-0.205683
-0.2041
-0.201454
-0.197598
-0.192384
-0.18571
-0.177494
-0.167751
-0.156534
-0.144037
-0.130471
-0.116214
-0.101582
-0.0870575
-0.0729239
-0.0596498
-0.0473331
-0.0363421
-0.0264695
-0.0179725
-0.0102506
-0.00351933
-0.146227
-0.152013
-0.155961
-0.159079
-0.16218
-0.165482
-0.168865
-0.172169
-0.175317
-0.178305
-0.181147
-0.183846
-0.186382
-0.188724
-0.190828
-0.192649
-0.194126
-0.19519
-0.195753
-0.195718
-0.194966
-0.193374
-0.190806
-0.187137
-0.182242
-0.176035
-0.168446
-0.159489
-0.149201
-0.137748
-0.1253
-0.112184
-0.098658
-0.0851533
-0.0719039
-0.0593463
-0.0475533
-0.0368911
-0.0271534
-0.018621
-0.010718
-0.00369865
-0.137609
-0.143122
-0.146996
-0.150115
-0.153204
-0.156463
-0.159787
-0.16303
-0.166119
-0.169044
-0.171814
-0.174429
-0.176869
-0.179102
-0.181089
-0.182786
-0.184137
-0.185079
-0.185536
-0.18542
-0.18463
-0.18306
-0.180593
-0.177125
-0.172547
-0.16679
-0.15979
-0.15156
-0.142127
-0.131633
-0.120211
-0.108146
-0.0956463
-0.0830949
-0.0706833
-0.0588144
-0.0475399
-0.0372172
-0.0276447
-0.0191172
-0.0110884
-0.00384097
-0.129434
-0.134656
-0.138421
-0.141504
-0.144548
-0.147737
-0.15098
-0.154143
-0.157155
-0.160003
-0.162693
-0.16522
-0.167565
-0.169697
-0.171579
-0.173168
-0.174415
-0.175262
-0.17564
-0.175475
-0.174675
-0.173152
-0.170805
-0.167546
-0.163281
-0.157952
-0.151505
-0.14395
-0.135304
-0.125689
-0.11521
-0.104112
-0.0925625
-0.0809008
-0.069281
-0.0580727
-0.0473092
-0.0373347
-0.0279541
-0.0194695
-0.0113668
-0.00394879
-0.121695
-0.126616
-0.130246
-0.133261
-0.136234
-0.139331
-0.142473
-0.145537
-0.148458
-0.151218
-0.153818
-0.156253
-0.158504
-0.16054
-0.162326
-0.163822
-0.164982
-0.165755
-0.166079
-0.165887
-0.165101
-0.163645
-0.161431
-0.158385
-0.154426
-0.149506
-0.143575
-0.136645
-0.128723
-0.119915
-0.110301
-0.100092
-0.0894222
-0.0785896
-0.0677167
-0.0571406
-0.0468783
-0.0372586
-0.0280936
-0.0196873
-0.011559
-0.00402458
-0.114381
-0.118998
-0.122472
-0.125395
-0.128275
-0.131263
-0.134288
-0.13724
-0.140055
-0.142716
-0.145221
-0.14756
-0.149716
-0.15166
-0.153358
-0.154772
-0.15586
-0.156575
-0.156862
-0.156663
-0.155909
-0.154533
-0.152461
-0.149628
-0.145966
-0.141434
-0.135986
-0.129634
-0.122379
-0.11431
-0.105489
-0.096098
-0.0862407
-0.0761799
-0.0660101
-0.0560376
-0.0462655
-0.0370049
-0.028076
-0.0197804
-0.0116709
-0.00407078
-0.107481
-0.111794
-0.115098
-0.117911
-0.120682
-0.123546
-0.126442
-0.12927
-0.13197
-0.134524
-0.136926
-0.139167
-0.141228
-0.143082
-0.144697
-0.146037
-0.147064
-0.147735
-0.148
-0.147808
-0.147098
-0.145813
-0.143887
-0.141266
-0.137889
-0.133722
-0.128725
-0.122907
-0.116265
-0.108874
-0.10078
-0.0921404
-0.0830331
-0.0736899
-0.064181
-0.0547838
-0.0454893
-0.0365902
-0.0279147
-0.0197591
-0.0117089
-0.00408989
-0.10098
-0.104995
-0.108121
-0.11081
-0.113459
-0.116189
-0.118947
-0.121643
-0.12422
-0.12666
-0.128954
-0.131094
-0.13306
-0.134827
-0.136363
-0.137636
-0.13861
-0.139247
-0.1395
-0.139326
-0.138669
-0.137479
-0.135701
-0.133286
-0.130182
-0.12636
-0.121782
-0.116457
-0.110377
-0.103608
-0.0961803
-0.0882298
-0.0798146
-0.0711377
-0.0622491
-0.0533992
-0.0445686
-0.0360312
-0.0276236
-0.019634
-0.0116794
-0.00408441
-0.0948632
-0.0985887
-0.101531
-0.104087
-0.106606
-0.109197
-0.111812
-0.114369
-0.116818
-0.119139
-0.121323
-0.123359
-0.12523
-0.12691
-0.128371
-0.129582
-0.13051
-0.131119
-0.131368
-0.131218
-0.130619
-0.129529
-0.127896
-0.12568
-0.122835
-0.119335
-0.115147
-0.110276
-0.104712
-0.0985125
-0.0916949
-0.0843771
-0.0765997
-0.0685412
-0.0602339
-0.0519036
-0.0435223
-0.0353452
-0.0272169
-0.0194159
-0.0115893
-0.00405684
-0.0891168
-0.0925626
-0.0953213
-0.0977392
-0.100124
-0.102571
-0.105039
-0.107455
-0.109773
-0.111972
-0.114042
-0.115975
-0.11775
-0.119346
-0.120734
-0.121886
-0.122772
-0.123358
-0.123609
-0.123486
-0.122949
-0.121957
-0.120466
-0.118441
-0.115839
-0.112641
-0.108812
-0.104359
-0.0992692
-0.0935897
-0.0873305
-0.0805929
-0.073403
-0.0659176
-0.0581545
-0.0503168
-0.0423694
-0.0345493
-0.026709
-0.0191159
-0.0114453
-0.0040097
-0.0837256
-0.0869039
-0.0894809
-0.0917585
-0.0940062
-0.0963089
-0.0986298
-0.100904
-0.103089
-0.105165
-0.107122
-0.10895
-0.110631
-0.112143
-0.11346
-0.114557
-0.115403
-0.115971
-0.116225
-0.116132
-0.115656
-0.11476
-0.113405
-0.11156
-0.109187
-0.106268
-0.102771
-0.0987026
-0.0940459
-0.0888422
-0.0830937
-0.0768877
-0.0702387
-0.063284
-0.0560297
-0.0486581
-0.0411286
-0.0336605
-0.0261141
-0.0187447
-0.0112542
-0.00394548
-0.0786754
-0.0815993
-0.0839991
-0.086137
-0.0882483
-0.0904078
-0.092583
-0.0947168
-0.0967696
-0.0987231
-0.100567
-0.102291
-0.103879
-0.105308
-0.106557
-0.107599
-0.108409
-0.108958
-0.109217
-0.109155
-0.108738
-0.107934
-0.106708
-0.105032
-0.102872
-0.100211
-0.09702
-0.093303
-0.0890426
-0.0842733
-0.0789913
-0.0732722
-0.0671205
-0.0606569
-0.0538777
-0.0469463
-0.0398182
-0.0326955
-0.0254463
-0.0183132
-0.0110227
-0.00386661
-0.0739525
-0.0766363
-0.078865
-0.0808656
-0.0828429
-0.0848622
-0.086895
-0.0888908
-0.0908138
-0.0926466
-0.0943794
-0.0960013
-0.0974966
-0.0988458
-0.100027
-0.101017
-0.101791
-0.102323
-0.102587
-0.102554
-0.102193
-0.101476
-0.10037
-0.0988515
-0.096888
-0.0944646
-0.091554
-0.0881586
-0.0842597
-0.0798865
-0.0750305
-0.0697567
-0.064062
-0.0580523
-0.0517161
-0.0451998
-0.038456
-0.0316707
-0.0247196
-0.017832
-0.0107576
-0.0037755
-0.0695439
-0.0720022
-0.0740673
-0.0759349
-0.0777821
-0.0796657
-0.0815607
-0.0834225
-0.0852193
-0.0869345
-0.0885585
-0.0900806
-0.0914861
-0.0927568
-0.0938721
-0.0948108
-0.0955497
-0.0960658
-0.096333
-0.0963266
-0.0960176
-0.0953812
-0.0943872
-0.0930136
-0.0912309
-0.0890253
-0.0863707
-0.0832684
-0.0796987
-0.0756863
-0.0712186
-0.0663517
-0.0610765
-0.0554857
-0.0495619
-0.0434363
-0.0370592
-0.0306019
-0.0239473
-0.0173114
-0.0104652
-0.00367449
-0.0654379
-0.0676854
-0.0695955
-0.0713355
-0.0730578
-0.0748112
-0.0765741
-0.0783073
-0.0799823
-0.0815839
-0.0831026
-0.0845281
-0.0858465
-0.0870409
-0.0880923
-0.088981
-0.0896854
-0.0901844
-0.090454
-0.0904713
-0.09021
-0.0896473
-0.0887555
-0.0875146
-0.085897
-0.0838899
-0.0814683
-0.0786324
-0.0753619
-0.0716773
-0.067563
-0.0630675
-0.0581767
-0.0529722
-0.0474315
-0.0416726
-0.0356445
-0.0295045
-0.0231425
-0.0167615
-0.0101519
-0.00356583
-0.0616234
-0.0636751
-0.0654393
-0.0670581
-0.0686615
-0.0702913
-0.0719286
-0.0735393
-0.0750981
-0.0765909
-0.0780085
-0.0793411
-0.0805756
-0.0816965
-0.082686
-0.0835258
-0.0841963
-0.0846776
-0.0849476
-0.0849854
-0.0847667
-0.0842706
-0.0834716
-0.0823511
-0.0808834
-0.0790564
-0.0768461
-0.0742516
-0.0712522
-0.0678648
-0.0640716
-0.0599143
-0.0553753
-0.0505261
-0.0453408
-0.0399251
-0.0342278
-0.0283931
-0.0223178
-0.0161919
-0.0098238
-0.0034517
-0.0580907
-0.0599614
-0.0615892
-0.0630939
-0.0645852
-0.0660985
-0.0676174
-0.0691124
-0.0705611
-0.0719506
-0.073272
-0.074516
-0.0756704
-0.0767206
-0.0776505
-0.078443
-0.0790799
-0.0795428
-0.0798114
-0.0798663
-0.079685
-0.0792485
-0.0785328
-0.0775208
-0.0761883
-0.0745238
-0.0725042
-0.0701276
-0.0673731
-0.0642545
-0.0607524
-0.0569026
-0.0526846
-0.0481616
-0.0433049
-0.0382095
-0.0328244
-0.0272819
-0.0214851
-0.0156118
-0.00948677
-0.0033342
-0.0548311
-0.0565353
-0.0580366
-0.0594347
-0.0608213
-0.0622258
-0.063634
-0.0650206
-0.0663658
-0.067658
-0.0688886
-0.0700488
-0.0711271
-0.0721101
-0.0729829
-0.0737297
-0.0743336
-0.0747776
-0.0750429
-0.0751114
-0.0749626
-0.0745785
-0.073937
-0.073022
-0.0718108
-0.0702921
-0.0684437
-0.0662631
-0.063729
-0.0608527
-0.0576137
-0.0540425
-0.0501169
-0.0458923
-0.0413384
-0.0365408
-0.0314489
-0.0261842
-0.020656
-0.0150302
-0.00914643
-0.00321533
-0.0518373
-0.0533893
-0.0547741
-0.0560735
-0.057363
-0.0586665
-0.059972
-0.0612579
-0.0625068
-0.0637081
-0.0648538
-0.0659353
-0.066942
-0.0678616
-0.0686801
-0.069383
-0.0699547
-0.0703795
-0.0706397
-0.0707188
-0.0705974
-0.0702591
-0.069683
-0.0688541
-0.0677507
-0.0663621
-0.0646668
-0.0626615
-0.060325
-0.0576663
-0.054664
-0.0513445
-0.047684
-0.0437315
-0.0394556
-0.0349333
-0.0301152
-0.0251129
-0.0198414
-0.0144554
-0.00880814
-0.003097
-0.0491032
-0.050517
-0.0517954
-0.0530042
-0.0542043
-0.0554151
-0.0566263
-0.0578193
-0.0589793
-0.0600966
-0.0611634
-0.0621718
-0.0631118
-0.0639719
-0.0647392
-0.0654006
-0.0659412
-0.0663466
-0.0666003
-0.0666869
-0.0665885
-0.0662896
-0.0657706
-0.0650174
-0.0640094
-0.0627361
-0.0611767
-0.0593273
-0.057167
-0.0547027
-0.0519126
-0.0488192
-0.045398
-0.0416923
-0.0376701
-0.033401
-0.0288369
-0.0240803
-0.0190518
-0.0138956
-0.00847708
-0.00298104
-0.0466245
-0.0479137
-0.0490957
-0.050222
-0.0513409
-0.0524673
-0.0535924
-0.0547008
-0.0557796
-0.0568198
-0.0578144
-0.0587554
-0.0596337
-0.0604387
-0.0611585
-0.0617806
-0.0622916
-0.0626778
-0.0629239
-0.0630156
-0.062936
-0.0626706
-0.062201
-0.0615137
-0.0605893
-0.0594173
-0.0579777
-0.0562662
-0.0542619
-0.0519702
-0.049369
-0.0464776
-0.043271
-0.0397878
-0.0359955
-0.0319575
-0.0276269
-0.0230983
-0.0182974
-0.0133586
-0.00815817
-0.00286922
-0.0443981
-0.0455762
-0.0466718
-0.047724
-0.0487697
-0.0498202
-0.0508679
-0.0518999
-0.0529053
-0.0538758
-0.0548047
-0.0556845
-0.0565066
-0.0572612
-0.0579371
-0.0585229
-0.0590059
-0.0593735
-0.0596113
-0.0597058
-0.0596413
-0.059404
-0.0589766
-0.0583463
-0.0574943
-0.0564106
-0.0550758
-0.053485
-0.0516178
-0.049478
-0.0470436
-0.0443312
-0.0413155
-0.0380309
-0.0344452
-0.0306159
-0.0264978
-0.0221783
-0.0175878
-0.0128517
-0.0078562
-0.00276321
-0.0424233
-0.0435034
-0.0445225
-0.045509
-0.0464898
-0.0474728
-0.0484518
-0.0494159
-0.0503558
-0.0512642
-0.0521344
-0.0529593
-0.0537309
-0.05444
-0.0550762
-0.0556288
-0.056086
-0.0564359
-0.056665
-0.0567606
-0.0567079
-0.0564939
-0.0561022
-0.0555203
-0.0547305
-0.0537228
-0.0524785
-0.0509923
-0.0492441
-0.0472366
-0.0449478
-0.0423922
-0.0395443
-0.0364351
-0.0330326
-0.0293895
-0.0254622
-0.0213317
-0.0169326
-0.0123824
-0.00757577
-0.00266467
-0.040701
-0.0416963
-0.0426489
-0.043578
-0.0445023
-0.0454266
-0.0463455
-0.0472504
-0.0481331
-0.048987
-0.0498056
-0.0505824
-0.0513094
-0.0519782
-0.0525791
-0.0531021
-0.0535359
-0.0538695
-0.05409
-0.0541855
-0.0541418
-0.0539468
-0.0535846
-0.0530434
-0.052306
-0.0513627
-0.0501953
-0.0487983
-0.047152
-0.0452579
-0.0430944
-0.0406739
-0.0379712
-0.0350142
-0.0317716
-0.0282917
-0.0245325
-0.0205695
-0.0163411
-0.0119577
-0.00732142
-0.00257519
-0.0392352
-0.0401587
-0.0410548
-0.0419352
-0.0428113
-0.0436857
-0.0445536
-0.045408
-0.046242
-0.0470493
-0.0478239
-0.0485593
-0.0492481
-0.0498823
-0.0504527
-0.0509498