/*--------------------------------*- C++ -*----------------------------------*\
  =========                 |
  \\      /  F ield         | OpenFOAM: The Open Source CFD Toolbox
   \\    /   O peration     | Website:  https://openfoam.org
    \\  /    A nd           | Version:  7
     \\/     M anipulation  |
\*---------------------------------------------------------------------------*/
FoamFile
{
    version     2.0;
    format      ascii;
    class       volScalarField;
    location    "20";
    object      p;
}
// * * * * * * * * * * * * * * * * * * * * * * * * * * * * * * * * * * * * * //

dimensions      [0 2 -2 0 0 0 0];

internalField   nonuniform List<scalar> 
6386
(
-0.253221
-0.255217
-0.256154
-0.256913
-0.257571
-0.258152
-0.258681
-0.259164
-0.259598
-0.259996
-0.253425
-0.255398
-0.256321
-0.257068
-0.257712
-0.25828
-0.258795
-0.259262
-0.259678
-0.260043
-0.253827
-0.255752
-0.256649
-0.25737
-0.257989
-0.25853
-0.259016
-0.259452
-0.259829
-0.260125
-0.254419
-0.256276
-0.257134
-0.257816
-0.258395
-0.258895
-0.259335
-0.259723
-0.260042
-0.260226
-0.255193
-0.256961
-0.257767
-0.258397
-0.258922
-0.259366
-0.259744
-0.260063
-0.260306
-0.260326
-0.256136
-0.257798
-0.258539
-0.259103
-0.25956
-0.259931
-0.260228
-0.260458
-0.260609
-0.260396
-0.257236
-0.258777
-0.259441
-0.259925
-0.260296
-0.260579
-0.260774
-0.260891
-0.260938
-0.260396
-0.258479
-0.259886
-0.260461
-0.260849
-0.261119
-0.261295
-0.261369
-0.261343
-0.261285
-0.260274
-0.259852
-0.261116
-0.261588
-0.261866
-0.262018
-0.262069
-0.261999
-0.261797
-0.261652
-0.259949
-0.261345
-0.262457
-0.262815
-0.262965
-0.26298
-0.262889
-0.262655
-0.262237
-0.262065
-0.259327
-0.262949
-0.263902
-0.264132
-0.264137
-0.263997
-0.263745
-0.26333
-0.262649
-0.262535
-0.258569
-0.264659
-0.265447
-0.265533
-0.265376
-0.265061
-0.26463
-0.264019
-0.263034
-0.262736
-0.257821
-0.266473
-0.267091
-0.267018
-0.266677
-0.266167
-0.265538
-0.26472
-0.263505
-0.262887
-0.256764
-0.268397
-0.268836
-0.268585
-0.268038
-0.26731
-0.266467
-0.26542
-0.263974
-0.26309
-0.25542
-0.270441
-0.270691
-0.270241
-0.26946
-0.268491
-0.267414
-0.266127
-0.264447
-0.263304
-0.253907
-0.272669
-0.271993
-0.27095
-0.269712
-0.26838
-0.266837
-0.264956
-0.263451
-0.252407
-0.274788
-0.273856
-0.27252
-0.270981
-0.269367
-0.267544
-0.265533
-0.263397
-0.251102
-0.277072
-0.275853
-0.274187
-0.272312
-0.270386
-0.268248
-0.266211
-0.262936
-0.250101
-0.278013
-0.275976
-0.273729
-0.271459
-0.268966
-0.267018
-0.261972
-0.250179
-0.280365
-0.27792
-0.275264
-0.272619
-0.269737
-0.267896
-0.260893
-0.254605
-0.28006
-0.276961
-0.273908
-0.270605
-0.268643
-0.260363
-0.265606
-0.27887
-0.275373
-0.271624
-0.269145
-0.260598
-0.264578
-0.281044
-0.277063
-0.27283
-0.269519
-0.261041
-0.261705
-0.279021
-0.274228
-0.269922
-0.261327
-0.258896
-0.275811
-0.270385
-0.261356
-0.256043
-0.270885
-0.261054
-0.253248
-0.260406
-0.250436
-0.247538
-0.25934
-0.247464
-0.260344
-0.250363
-0.270835
-0.260993
-0.253175
-0.275769
-0.270336
-0.261296
-0.25597
-0.278984
-0.274188
-0.269874
-0.261268
-0.258823
-0.281009
-0.277027
-0.27279
-0.269472
-0.260981
-0.261631
-0.278834
-0.275337
-0.271584
-0.269099
-0.260537
-0.264503
-0.280024
-0.276925
-0.273872
-0.270565
-0.268596
-0.260302
-0.26553
-0.280327
-0.277883
-0.275228
-0.272582
-0.269696
-0.267849
-0.260831
-0.254525
-0.277974
-0.275938
-0.273691
-0.271421
-0.268924
-0.26697
-0.26191
-0.250096
-0.27703
-0.275813
-0.274148
-0.272273
-0.270346
-0.268204
-0.266161
-0.262873
-0.250016
-0.274745
-0.273815
-0.27248
-0.270941
-0.269326
-0.267499
-0.265481
-0.263334
-0.251016
-0.272575
-0.272625
-0.271951
-0.270909
-0.269671
-0.268338
-0.266791
-0.264903
-0.263386
-0.25232
-0.270393
-0.270647
-0.270198
-0.269419
-0.268449
-0.267371
-0.266079
-0.264392
-0.263239
-0.25382
-0.268349
-0.268792
-0.268542
-0.267995
-0.267268
-0.266422
-0.265372
-0.263918
-0.263024
-0.255333
-0.266425
-0.267047
-0.266975
-0.266635
-0.266124
-0.265493
-0.264671
-0.263447
-0.262821
-0.256677
-0.264611
-0.265404
-0.265491
-0.265335
-0.265019
-0.264585
-0.26397
-0.262975
-0.262674
-0.257734
-0.262903
-0.26386
-0.264091
-0.264097
-0.263956
-0.263701
-0.263281
-0.262593
-0.262475
-0.258483
-0.261301
-0.262417
-0.262775
-0.262926
-0.26294
-0.262846
-0.262608
-0.262183
-0.262003
-0.25925
-0.259811
-0.261078
-0.261551
-0.261829
-0.26198
-0.262029
-0.261954
-0.261745
-0.261591
-0.259876
-0.258441
-0.259851
-0.260426
-0.260815
-0.261084
-0.261258
-0.261327
-0.261295
-0.261229
-0.260206
-0.257201
-0.258745
-0.25941
-0.259894
-0.260264
-0.260545
-0.260736
-0.260848
-0.260887
-0.260334
-0.256106
-0.257771
-0.258512
-0.259076
-0.259532
-0.259902
-0.260195
-0.26042
-0.260564
-0.260341
-0.255167
-0.256938
-0.257744
-0.258374
-0.258898
-0.259341
-0.259716
-0.260031
-0.260268
-0.26028
-0.254399
-0.256257
-0.257115
-0.257798
-0.258376
-0.258875
-0.259313
-0.259697
-0.260012
-0.26019
-0.253812
-0.255739
-0.256636
-0.257357
-0.257975
-0.258516
-0.258999
-0.259433
-0.259807
-0.260098
-0.253416
-0.255389
-0.256313
-0.25706
-0.257704
-0.258271
-0.258785
-0.259251
-0.259664
-0.260027
-0.253218
-0.255215
-0.256151
-0.256911
-0.257568
-0.258149
-0.258678
-0.25916
-0.259593
-0.259991
-0.260484
-0.260838
-0.26121
-0.2616
-0.262009
-0.262442
-0.262901
-0.263388
-0.263906
-0.264458
-0.26505
-0.265688
-0.266381
-0.267138
-0.267968
-0.268879
-0.269872
-0.27094
-0.27206
-0.273185
-0.274231
-0.275071
-0.275515
-0.275306
-0.274101
-0.271474
-0.266892
-0.259898
-0.249902
-0.236618
-0.219541
-0.199193
-0.175181
-0.149409
-0.121579
-0.0940077
-0.0685036
-0.0423162
-0.0267375
-0.00396341
-0.00446357
0.0133362
-0.260574
-0.260911
-0.261276
-0.261663
-0.262069
-0.2625
-0.262957
-0.263443
-0.26396
-0.264511
-0.265102
-0.265738
-0.266429
-0.267184
-0.268012
-0.26892
-0.269912
-0.27098
-0.2721
-0.273227
-0.274278
-0.275126
-0.275581
-0.275387
-0.274202
-0.271597
-0.267035
-0.260078
-0.250111
-0.236858
-0.219802
-0.199476
-0.175468
-0.149705
-0.12186
-0.0942875
-0.0687717
-0.0425505
-0.0269541
-0.00416836
-0.00461957
0.0131742
-0.260741
-0.261045
-0.261396
-0.261776
-0.262175
-0.262602
-0.263055
-0.263537
-0.264051
-0.264598
-0.265185
-0.265817
-0.266504
-0.267254
-0.268079
-0.268985
-0.269977
-0.271046
-0.272173
-0.27331
-0.274378
-0.275248
-0.275735
-0.275579
-0.274441
-0.271888
-0.26739
-0.260492
-0.25058
-0.237381
-0.220358
-0.200062
-0.17605
-0.150291
-0.122408
-0.0948208
-0.0692811
-0.0429813
-0.0273564
-0.0045499
-0.00490403
0.0128668
-0.260977
-0.261232
-0.261561
-0.26193
-0.262321
-0.26274
-0.263187
-0.263664
-0.264172
-0.264713
-0.265293
-0.265919
-0.266599
-0.267343
-0.268163
-0.269066
-0.270058
-0.271132
-0.272269
-0.273424
-0.274517
-0.275425
-0.275959
-0.275864
-0.274796
-0.272321
-0.267917
-0.261109
-0.251276
-0.238155
-0.221177
-0.200923
-0.176902
-0.151141
-0.123204
-0.0955885
-0.0699526
-0.0436592
-0.0279361
-0.00510055
-0.00530476
0.0124239
-0.261267
-0.261458
-0.26176
-0.262116
-0.262495
-0.262904
-0.263344
-0.263813
-0.264313
-0.264847
-0.265418
-0.266035
-0.266706
-0.267442
-0.268254
-0.269154
-0.270145
-0.271225
-0.272374
-0.273552
-0.274679
-0.275635
-0.276231
-0.276213
-0.275237
-0.272863
-0.268578
-0.261886
-0.252156
-0.239136
-0.222216
-0.202016
-0.177985
-0.152223
-0.124223
-0.0965634
-0.0708347
-0.0445072
-0.02868
-0.0058105
-0.00580565
0.0118588
-0.2616
-0.261709
-0.261979
-0.262321
-0.262686
-0.263085
-0.263515
-0.263975
-0.264466
-0.264989
-0.265549
-0.266154
-0.266814
-0.267539
-0.268343
-0.269236
-0.270226
-0.271311
-0.272475
-0.273678
-0.274844
-0.275855
-0.276523
-0.276596
-0.275728
-0.273475
-0.269327
-0.262775
-0.253168
-0.24027
-0.223424
-0.203292
-0.179255
-0.153499
-0.125431
-0.097717
-0.0718987
-0.0455103
-0.0295716
-0.00666813
-0.00638853
0.0111877
-0.261963
-0.261968
-0.262204
-0.262532
-0.262882
-0.263269
-0.263689
-0.264138
-0.264617
-0.265128
-0.265676
-0.266267
-0.266913
-0.267625
-0.268418
-0.269303
-0.270289
-0.271378
-0.272555
-0.273784
-0.274991
-0.276061
-0.276807
-0.27698
-0.276232
-0.274114
-0.270117
-0.263724
-0.254259
-0.241501
-0.224745
-0.204697
-0.180664
-0.154928
-0.126778
-0.0990219
-0.073119
-0.0466546
-0.0305918
-0.00766034
-0.00703498
0.0104275
-0.262357
-0.262219
-0.262421
-0.262736
-0.263071
-0.263445
-0.263853
-0.264291
-0.264757
-0.265254
-0.265787
-0.266363
-0.266993
-0.26769
-0.268468
-0.269342
-0.270323
-0.271413
-0.272601
-0.273854
-0.275101
-0.27623
-0.277057
-0.277333
-0.27671
-0.274731
-0.270899
-0.26468
-0.255372
-0.242774
-0.226125
-0.206178
-0.182163
-0.156441
-0.128261
-0.100439
-0.0744685
-0.0479206
-0.0317207
-0.00877284
-0.00772771
0.009596
-0.262832
-0.262443
-0.262616
-0.262923
-0.26324
-0.2636
-0.263996
-0.264421
-0.264874
-0.265355
-0.265872
-0.266431
-0.267043
-0.267723
-0.268485
-0.269346
-0.270318
-0.271406
-0.272601
-0.273874
-0.275157
-0.276343
-0.277248
-0.277628
-0.277127
-0.275251
-0.271631
-0.265598
-0.256458
-0.244036
-0.227515
-0.207671
-0.183708
-0.15802
-0.129823
-0.101938
-0.0759207
-0.0492882
-0.0329378
-0.00999041
-0.0084514
0.00871005
-0.263449
-0.262626
-0.26278
-0.263081
-0.263382
-0.263725
-0.264108
-0.264519
-0.264957
-0.265422
-0.265923
-0.266464
-0.267057
-0.267718
-0.268462
-0.269306
-0.270265
-0.271348
-0.272546
-0.273833
-0.275147
-0.276383
-0.277361
-0.277839
-0.277462
-0.275869
-0.272284
-0.266442
-0.257463
-0.245234
-0.228847
-0.209154
-0.185259
-0.159617
-0.131432
-0.103492
-0.077449
-0.0507373
-0.0342229
-0.0112971
-0.00919308
0.00778556
-0.263733
-0.262899
-0.262916
-0.263201
-0.263487
-0.263811
-0.264178
-0.264575
-0.264999
-0.265445
-0.265929
-0.266452
-0.267027
-0.267667
-0.268391
-0.269217
-0.270161
-0.271233
-0.272427
-0.273726
-0.275062
-0.27634
-0.277381
-0.27795
-0.277682
-0.276193
-0.272815
-0.267155
-0.258373
-0.246333
-0.230105
-0.210569
-0.186773
-0.161194
-0.133058
-0.105072
-0.0790279
-0.0522485
-0.0355565
-0.0126767
-0.00994204
0.00683691
-0.263973
-0.263196
-0.263014
-0.263277
-0.263549
-0.263849
-0.264198
-0.264579
-0.264986
-0.265419
-0.265885
-0.26639
-0.266945
-0.267566
-0.26827
-0.269075
-0.270001
-0.271058
-0.272245
-0.273543
-0.274894
-0.276205
-0.277299
-0.277947
-0.277776
-0.27642
-0.273207
-0.267731
-0.259136
-0.247299
-0.231246
-0.211882
-0.188217
-0.16272
-0.134672
-0.106655
-0.0806327
-0.0538032
-0.0369204
-0.0141127
-0.0106897
0.00587676
-0.264266
-0.263487
-0.263071
-0.26331
-0.263562
-0.263831
-0.264159
-0.264523
-0.264913
-0.265331
-0.265781
-0.26627
-0.266807
-0.267409
-0.268092
-0.268876
-0.269781
-0.27082
-0.271993
-0.273285
-0.274642
-0.275974
-0.277109
-0.277823
-0.277757
-0.276508
-0.273442
-0.268144
-0.259733
-0.248104
-0.232241
-0.213065
-0.189563
-0.164168
-0.136247
-0.108217
-0.082241
-0.0553836
-0.0382979
-0.0155889
-0.0114291
0.00491594
-0.264587
-0.26379
-0.263097
-0.263299
-0.263519
-0.263747
-0.26405
-0.264394
-0.264768
-0.265172
-0.265609
-0.266083
-0.266605
-0.267189
-0.267853
-0.268616
-0.269498
-0.270516
-0.27167
-0.27295
-0.274302
-0.275644
-0.276806
-0.277572
-0.277579
-0.276437
-0.273507
-0.268378
-0.260149
-0.248729
-0.23307
-0.214095
-0.19079
-0.165514
-0.13776
-0.109739
-0.0838322
-0.0569728
-0.0396737
-0.0170898
-0.0121549
0.00396346
-0.264923
-0.264117
-0.263097
-0.26324
-0.263411
-0.263585
-0.263857
-0.264181
-0.26454
-0.264932
-0.265358
-0.265821
-0.266331
-0.2669
-0.267546
-0.268289
-0.269149
-0.270142
-0.271273
-0.272534
-0.273873
-0.275213
-0.27639
-0.277189
-0.277251
-0.276203
-0.273394
-0.268422
-0.26037
-0.249158
-0.233715
-0.214953
-0.191875
-0.16674
-0.139191
-0.111204
-0.085386
-0.0585537
-0.0410329
-0.0185996
-0.0128619
0.00302679
-0.265265
-0.264439
-0.263058
-0.26312
-0.263218
-0.263325
-0.263562
-0.263867
-0.264212
-0.264596
-0.265016
-0.265473
-0.265975
-0.266534
-0.267165
-0.267889
-0.268726
-0.269694
-0.270799
-0.272034
-0.273352
-0.274678
-0.27586
-0.276676
-0.276777
-0.275804
-0.273097
-0.268269
-0.260386
-0.249379
-0.234163
-0.215623
-0.192801
-0.167826
-0.140515
-0.112591
-0.0868819
-0.0601087
-0.0423617
-0.0201031
-0.0135461
0.00211214
-0.265557
-0.264642
-0.262931
-0.262916
-0.262914
-0.262944
-0.26315
-0.263439
-0.263776
-0.264156
-0.264575
-0.265032
-0.26553
-0.266082
-0.266702
-0.26741
-0.268225
-0.269167
-0.270243
-0.271448
-0.272735
-0.274041
-0.275191
-0.276029
-0.276152
-0.275234
-0.272614
-0.267914
-0.260193
-0.249385
-0.234404
-0.216094
-0.193557
-0.168764
-0.141725
-0.113894
-0.0883139
-0.0616288
-0.0436563
-0.0215888
-0.0142081
0.00122407
-0.265723
-0.264586
-0.262675
-0.262618
-0.262485
-0.262429
-0.262604
-0.262881
-0.263213
-0.263594
-0.264016
-0.264475
-0.264974
-0.265523
-0.266135
-0.266829
-0.267625
-0.268541
-0.269585
-0.270757
-0.272013
-0.273296
-0.27441
-0.275226
-0.275359
-0.274484
-0.271938
-0.267358
-0.259797
-0.249192
-0.234463
-0.216402
-0.194183
-0.169597
-0.142865
-0.115149
-0.0897159
-0.063132
-0.0449351
-0.0230564
-0.014855
0.000363238
-0.266581
-0.264243
-0.262242
-0.262139
-0.261827
-0.261679
-0.261826
-0.262098
-0.262434
-0.262825
-0.263259
-0.263732
-0.264243
-0.264798
-0.265411
-0.266099
-0.26688
-0.267773
-0.268787
-0.269922
-0.271148
-0.272352
-0.273464
-0.274251
-0.274381
-0.27354
-0.271064
-0.266604
-0.259213
-0.248824
-0.234374
-0.216584
-0.194715
-0.170357
-0.143954
-0.116371
-0.0910877
-0.0646196
-0.0461866
-0.0245058
-0.0154766
-0.00047427
-0.266423
-0.26184
-0.26082
-0.260963
-0.260583
-0.260445
-0.260644
-0.260973
-0.261361
-0.2618
-0.26228
-0.262796
-0.263344
-0.263931
-0.264567
-0.265268
-0.266051
-0.266936
-0.267928
-0.269024
-0.270165
-0.271403
-0.272473
-0.273221
-0.273317
-0.272468
-0.270017
-0.265619
-0.258345
-0.248106
-0.233888
-0.216315
-0.194775
-0.170644
-0.144577
-0.117209
-0.0920857
-0.0658815
-0.0472014
-0.0258679
-0.0159863
-0.00128429
-0.251071
-0.252927
-0.257583
-0.259097
-0.259028
-0.259032
-0.259336
-0.259757
-0.260215
-0.260708
-0.261237
-0.261797
-0.262384
-0.263003
-0.263663
-0.264381
-0.265171
-0.266052
-0.26703
-0.268116
-0.269253
-0.270374
-0.271343
-0.271998
-0.271994
-0.27103
-0.26848
-0.263982
-0.256678
-0.246414
-0.232328
-0.21488
-0.193695
-0.169873
-0.14428
-0.117405
-0.0925649
-0.0670271
-0.0480561
-0.0274623
-0.0164624
-0.00228423
-0.249979
-0.250105
-0.254258
-0.255911
-0.255906
-0.255938
-0.256366
-0.256963
-0.257582
-0.258207
-0.258851
-0.259515
-0.260194
-0.260892
-0.261616
-0.262381
-0.263199
-0.264084
-0.265035
-0.266046
-0.26709
-0.268081
-0.268881
-0.269327
-0.269081
-0.267853
-0.265058
-0.26034
-0.252928
-0.242629
-0.228743
-0.211569
-0.190969
-0.167744
-0.142947
-0.116891
-0.0926229
-0.0680011
-0.0488956
-0.0291376
-0.0170409
-0.00332399
-0.246426
-0.246507
-0.249143
-0.250682
-0.251088
-0.251431
-0.252093
-0.25292
-0.253755
-0.254568
-0.25538
-0.256195
-0.257012
-0.25783
-0.258654
-0.259497
-0.260368
-0.261276
-0.262217
-0.263182
-0.264105
-0.264946
-0.265549
-0.265754
-0.26523
-0.263703
-0.260634
-0.255677
-0.248155
-0.237845
-0.224196
-0.207383
-0.187435
-0.164943
-0.141023
-0.115923
-0.0923167
-0.068673
-0.0495599
-0.0305793
-0.0176049
-0.00419428
-0.240246
-0.241278
-0.242669
-0.243825
-0.244636
-0.245442
-0.246428
-0.247516
-0.248597
-0.249642
-0.250666
-0.251676
-0.252669
-0.253644
-0.254602
-0.255552
-0.2565
-0.257452
-0.258396
-0.259315
-0.260141
-0.26083
-0.261234
-0.261193
-0.260393
-0.258572
-0.255242
-0.250071
-0.242471
-0.232205
-0.218844
-0.202479
-0.183244
-0.161598
-0.138612
-0.11457
-0.0916967
-0.0690634
-0.0500566
-0.0317885
-0.0181365
-0.00490911
-0.231573
-0.234071
-0.235017
-0.235808
-0.236859
-0.238109
-0.239456
-0.240819
-0.242149
-0.243436
-0.244691
-0.245916
-0.247106
-0.248257
-0.249369
-0.250445
-0.251486
-0.252494
-0.253451
-0.254336
-0.255083
-0.255624
-0.255833
-0.255556
-0.254496
-0.252403
-0.248844
-0.243501
-0.235874
-0.225721
-0.212711
-0.196889
-0.178432
-0.157733
-0.135744
-0.112836
-0.0907699
-0.0691558
-0.0503751
-0.0327517
-0.0186166
-0.00548121
-0.221134
-0.225118
-0.226245
-0.226914
-0.228121
-0.229737
-0.231442
-0.233086
-0.234655
-0.23617
-0.237644
-0.239077
-0.240458
-0.241781
-0.243042
-0.244242
-0.245375
-0.246439
-0.247409
-0.248267
-0.24894
-0.249345
-0.249374
-0.248878
-0.247583
-0.245254
-0.241508
-0.236051
-0.228457
-0.218496
-0.205906
-0.190713
-0.173095
-0.153422
-0.132484
-0.110752
-0.0895613
-0.0689548
-0.0505121
-0.0334705
-0.0190294
-0.00592657
-0.209954
-0.214997
-0.216601
-0.217416
-0.218794
-0.2207
-0.222721
-0.224636
-0.22643
-0.228149
-0.229816
-0.23143
-0.232979
-0.234452
-0.235842
-0.237148
-0.238357
-0.239464
-0.24044
-0.241262
-0.241863
-0.24215
-0.242015
-0.241318
-0.239819
-0.237296
-0.233414
-0.227906
-0.220407
-0.210712
-0.198601
-0.184105
-0.167371
-0.148768
-0.128916
-0.108372
-0.0881044
-0.0684788
-0.0504683
-0.0339568
-0.0193619
-0.0062621
-0.198581
-0.204268
-0.206428
-0.207568
-0.209163
-0.211305
-0.213588
-0.215748
-0.21775
-0.219649
-0.221481
-0.223249
-0.224938
-0.226534
-0.228029
-0.229415
-0.230681
-0.231813
-0.23278
-0.233549
-0.23406
-0.234261
-0.233982
-0.233108
-0.231435
-0.228763
-0.224796
-0.219296
-0.211947
-0.202575
-0.190987
-0.177229
-0.161402
-0.143879
-0.125124
-0.105751
-0.0864338
-0.0677532
-0.0502475
-0.0342283
-0.019605
-0.00650381
-0.187335
-0.193373
-0.196036
-0.197567
-0.199413
-0.20176
-0.204256
-0.206628
-0.208819
-0.21088
-0.212855
-0.214752
-0.216556
-0.218252
-0.219828
-0.221275
-0.222578
-0.223719
-0.224668
-0.225388
-0.225826
-0.225914
-0.225506
-0.224486
-0.222674
-0.219896
-0.215888
-0.210445
-0.20329
-0.194282
-0.183243
-0.170235
-0.155315
-0.138853
-0.121183
-0.102942
-0.0845823
-0.0668063
-0.0498563
-0.0343052
-0.0197538
-0.00666615
-0.176419
-0.182592
-0.185654
-0.187563
-0.189666
-0.192197
-0.194868
-0.197417
-0.199776
-0.201983
-0.204083
-0.206089
-0.207989
-0.209766
-0.211406
-0.212899
-0.214226
-0.215368
-0.216293
-0.216965
-0.217325
-0.21731
-0.21679
-0.215655
-0.213741
-0.210895
-0.206886
-0.201541
-0.194612
-0.18599
-0.175508
-0.163241
-0.149208
-0.13377
-0.117153
-0.099994
-0.0825787
-0.0656661
-0.0493038
-0.0342077
-0.0198075
-0.00676178
-0.165907
-0.172076
-0.175431
-0.177667
-0.180008
-0.182702
-0.185515
-0.188212
-0.190714
-0.193049
-0.195259
-0.19736
-0.19934
-0.201185
-0.202877
-0.204405
-0.205748
-0.206887
-0.207787
-0.208414
-0.208705
-0.208601
-0.207991
-0.206768
-0.204783
-0.201906
-0.197931
-0.192714
-0.186034
-0.177807
-0.167878
-0.15633
-0.143149
-0.128684
-0.113077
-0.0969419
-0.0804468
-0.0643577
-0.0486007
-0.0339546
-0.0197685
-0.00680148
-0.15583
-0.16191
-0.165464
-0.167963
-0.170504
-0.173335
-0.176263
-0.179076
-0.181696
-0.184141
-0.186446
-0.188627
-0.190676
-0.192577
-0.194312
-0.195867
-0.197223
-0.198357
-0.199236
-0.199822
-0.200058
-0.199885
-0.199204
-0.197921
-0.195897
-0.19302
-0.189109
-0.184044
-0.177627
-0.169798
-0.160409
-0.149549
-0.137181
-0.123632
-0.108985
-0.093814
-0.0782063
-0.0629036
-0.0477589
-0.0335633
-0.0196416
-0.00679425
-0.14621
-0.15214
-0.155814
-0.158511
-0.161209
-0.164145
-0.167159
-0.17006
-0.172772
-0.175305
-0.177688
-0.179936
-0.182041
-0.183987
-0.185758
-0.187336
-0.188702
-0.189832
-0.190693
-0.191249
-0.191443
-0.19122
-0.19049
-0.189171
-0.187137
-0.18429
-0.180468
-0.175573
-0.16943
-0.161995
-0.153129
-0.142923
-0.131325
-0.118637
-0.104895
-0.0906314
-0.075874
-0.0613234
-0.0467907
-0.0330494
-0.0194331
-0.00674749
-0.137056
-0.142792
-0.146522
-0.149357
-0.152166
-0.155174
-0.158244
-0.161204
-0.163982
-0.16658
-0.169023
-0.171322
-0.173471
-0.175454
-0.177252
-0.178849
-0.180222
-0.18135
-0.182198
-0.182732
-0.182897
-0.182643
-0.181886
-0.180555
-0.178535
-0.175741
-0.17203
-0.167321
-0.161457
-0.15441
-0.146049
-0.136464
-0.125593
-0.11371
-0.100821
-0.0874106
-0.0734648
-0.0596346
-0.0457091
-0.0324274
-0.0191501
-0.0066673
-0.128369
-0.133881
-0.137613
-0.140532
-0.143411
-0.146456
-0.149552
-0.152543
-0.155361
-0.158002
-0.160485
-0.162821
-0.165
-0.167008
-0.168825
-0.170435
-0.171815
-0.172941
-0.173782
-0.174302
-0.17445
-0.17418
-0.173416
-0.172093
-0.170109
-0.167389
-0.163806
-0.159295
-0.153715
-0.147047
-0.139172
-0.130176
-0.119989
-0.108861
-0.0967738
-0.0841653
-0.0709925
-0.0578535
-0.0445275
-0.0317107
-0.0188003
-0.00655876
-0.120147
-0.125412
-0.129103
-0.13206
-0.134969
-0.138021
-0.141114
-0.14411
-0.146941
-0.149602
-0.152107
-0.154462
-0.156658
-0.15868
-0.160509
-0.162126
-0.163508
-0.164634
-0.16547
-0.165983
-0.166126
-0.165854
-0.165099
-0.163802
-0.161871
-0.159243
-0.155803
-0.151498
-0.146203
-0.139906
-0.132497
-0.124058
-0.114516
-0.104096
-0.0927617
-0.0809079
-0.0684705
-0.0559954
-0.0432591
-0.0309121
-0.0183917
-0.00642616
-0.112384
-0.117386
-0.121001
-0.123957
-0.126862
-0.129891
-0.132955
-0.13593
-0.138751
-0.141411
-0.143918
-0.146275
-0.148474
-0.150499
-0.15233
-0.153948
-0.15533
-0.156454
-0.157288
-0.157801
-0.157946
-0.157684
-0.156951
-0.155695
-0.153833
-0.15131
-0.148024
-0.143931
-0.138919
-0.132983
-0.126022
-0.11811
-0.109175
-0.0994198
-0.0887931
-0.0776502
-0.0659121
-0.0540749
-0.0419172
-0.0300436
-0.017932
-0.00627325
-0.105066
-0.109798
-0.113307
-0.11623
-0.119103
-0.122083
-0.125095
-0.128026
-0.130816
-0.133454
-0.135944
-0.138288
-0.140477
-0.142493
-0.144316
-0.145929
-0.147307
-0.148428
-0.149262
-0.149777
-0.149932
-0.149689
-0.148989
-0.147786
-0.146004
-0.143597
-0.140473
-0.136596
-0.131864
-0.126279
-0.119745
-0.112333
-0.10397
-0.0948379
-0.0848763
-0.0744035
-0.0633302
-0.0521061
-0.0405151
-0.0291167
-0.0174288
-0.00610333
-0.0981807
-0.102637
-0.106021
-0.108883
-0.111699
-0.11461
-0.117549
-0.120417
-0.123156
-0.125753
-0.12821
-0.130526
-0.132691
-0.134687
-0.136494
-0.138095
-0.139464
-0.14058
-0.141413
-0.141934
-0.142104
-0.141886
-0.141227
-0.140086
-0.138395
-0.136111
-0.133154
-0.129493
-0.125037
-0.119791
-0.113665
-0.106728
-0.0989032
-0.0903558
-0.0810196
-0.0711787
-0.0607373
-0.0501026
-0.0390654
-0.0281423
-0.0168895
-0.00591942
-0.0917104
-0.0958923
-0.0991341
-0.101916
-0.104655
-0.107478
-0.110329
-0.113117
-0.115788
-0.118328
-0.120737
-0.123011
-0.125139
-0.127105
-0.128887
-0.130468
-0.131823
-0.132931
-0.133763
-0.134292
-0.134479
-0.134292
-0.13368
-0.132608
-0.131013
-0.128858
-0.12607
-0.122624
-0.118439
-0.113519
-0.107784
-0.101294
-0.0939769
-0.0859792
-0.077231
-0.0679866
-0.0581459
-0.0480775
-0.0375804
-0.027131
-0.0163211
-0.00572426
-0.0856378
-0.0895493
-0.0926386
-0.0953232
-0.09797
-0.100692
-0.103441
-0.106135
-0.108724
-0.111194
-0.11354
-0.11576
-0.117841
-0.119767
-0.121516
-0.12307
-0.124407
-0.125504
-0.126333
-0.126869
-0.127076
-0.126922
-0.126362
-0.125363
-0.123868
-0.121844
-0.119226
-0.115993
-0.11207
-0.107464
-0.1021
-0.096034
-0.0891948
-0.0817138
-0.0735188
-0.0648375
-0.0555679
-0.0460433
-0.036072
-0.0260924
-0.0157302
-0.00552038
-0.0799448
-0.0835925
-0.0865227
-0.0890983
-0.0916412
-0.094252
-0.0968883
-0.0994774
-0.101974
-0.104361
-0.106635
-0.108791
-0.110815
-0.112691
-0.1144
-0.115921
-0.117234
-0.118316
-0.119141
-0.119684
-0.11991
-0.119791
-0.119285
-0.118362
-0.116968
-0.115077
-0.112627
-0.109601
-0.105932
-0.101627
-0.0966163
-0.0909504
-0.084561
-0.0775656
-0.0698911
-0.0617415
-0.0530145
-0.0440118
-0.0345513
-0.0250361
-0.0151231
-0.00531014
-0.0746134
-0.078006
-0.080774
-0.0832325
-0.0856632
-0.0881556
-0.0906722
-0.0931488
-0.0955432
-0.0978394
-0.100032
-0.102114
-0.104073
-0.105893
-0.107554
-0.109037
-0.110321
-0.111385
-0.112203
-0.11275
-0.112996
-0.112913
-0.112461
-0.111614
-0.110322
-0.108561
-0.106276
-0.103453
-0.100028
-0.09601
-0.0913338
-0.0860457
-0.0800795
-0.0735405
-0.0663558
-0.0587081
-0.0504966
-0.0419942
-0.0330289
-0.0239706
-0.0145056
-0.00509572
-0.0696262
-0.072774
-0.0753795
-0.0777159
-0.0800293
-0.0823985
-0.0847911
-0.0871497
-0.0894361
-0.0916343
-0.0937381
-0.09574
-0.0976274
-0.0993845
-0.100992
-0.102432
-0.103683
-0.104725
-0.105532
-0.106083
-0.106347
-0.106298
-0.1059
-0.105128
-0.103936
-0.102304
-0.100179
-0.0975498
-0.0943593
-0.0906145
-0.0862551
-0.081323
-0.0757547
-0.0696445
-0.0629206
-0.0557468
-0.0480246
-0.0400012
-0.0315145
-0.0229041
-0.0138832
-0.00487911
-0.0649664
-0.0678807
-0.0703258
-0.0725379
-0.0747314
-0.0769754
-0.0792416
-0.0814793
-0.0836537
-0.0857494
-0.0877595
-0.0896762
-0.091487
-0.0931764
-0.0947261
-0.0961182
-0.0973321
-0.0983483
-0.0991429
-0.0996944
-0.0999738
-0.0999578
-0.0996119
-0.0989122
-0.0978181
-0.0963094
-0.0943394
-0.0918966
-0.088929
-0.0854433
-0.0813829
-0.0767859
-0.0715913
-0.0658837
-0.059593
-0.0528662
-0.0456082
-0.0380425
-0.0300174
-0.0218442
-0.0132609
-0.00466218
-0.0606184
-0.0633113
-0.0655998
-0.0676877
-0.0697608
-0.0718794
-0.0740191
-0.0761349
-0.0781954
-0.0801861
-0.0820995
-0.0839275
-0.0856581
-0.0872761
-0.0887642
-0.0901049
-0.0912784
-0.092266
-0.0930449
-0.0935944
-0.0938873
-0.0939015
-0.0936047
-0.0929749
-0.0919743
-0.0905842
-0.0887617
-0.0864965
-0.0837403
-0.0804992
-0.0767205
-0.0724381
-0.067594
-0.0622642
-0.0563803
-0.050075
-0.0432564
-0.0361275
-0.0285463
-0.020798
-0.0126436
-0.00444665
-0.0565674
-0.0590516
-0.0611889
-0.0631544
-0.0651084
-0.0671034
-0.069118
-0.0711127
-0.0730593
-0.0749441
-0.0767594
-0.078497
-0.0801451
-0.0816895
-0.0831133
-0.0843999
-0.0855304
-0.0864868
-0.0872473
-0.0877922
-0.0880958
-0.0881373
-0.0878864
-0.0873224
-0.0864104
-0.0851331
-0.0834505
-0.0813532
-0.0787964
-0.0757856
-0.0722712
-0.0682838
-0.063768
-0.0587919
-0.0532898
-0.0473811
-0.0409781
-0.0342649
-0.0271091
-0.019772
-0.0120354
-0.00423409
-0.0528004
-0.0550886
-0.0570812
-0.0589276
-0.0607655
-0.0626399
-0.0645324
-0.0664083
-0.0682425
-0.0700221
-0.0717393
-0.073386
-0.074951
-0.0764204
-0.0777786
-0.0790093
-0.0800948
-0.0810178
-0.0817576
-0.0822953
-0.0826068
-0.0826723
-0.0824635
-0.081961
-0.0811322
-0.0799609
-0.07841
-0.0764707
-0.0741011
-0.0713061
-0.068039
-0.0643273
-0.0601182
-0.0554729
-0.0503284
-0.0447924
-0.0387814
-0.0324627
-0.0257132
-0.0187721
-0.0114405
-0.00402597
-0.0493051
-0.0514104
-0.0532656
-0.0549975
-0.0567232
-0.0584814
-0.0602559
-0.0620166
-0.0637412
-0.0654176
-0.0670382
-0.068595
-0.0700771
-0.0714716
-0.0727635
-0.0739376
-0.0749768
-0.0758647
-0.0765817
-0.07711
-0.0774265
-0.0775128
-0.0773421
-0.0768962
-0.0761447
-0.0750724
-0.0736446
-0.0718529
-0.0696582
-0.0670646
-0.0640281
-0.0605733
-0.05665
-0.0523133
-0.047503
-0.0423162
-0.0366741
-0.0307287
-0.0243657
-0.0178042
-0.0108626
-0.00382363
-0.046071
-0.0480064
-0.0497322
-0.0513549
-0.0529736
-0.0546207
-0.0562824
-0.0579326
-0.0595515
-0.0611279
-0.0626545
-0.0641234
-0.0655242
-0.0668447
-0.0680707
-0.069188
-0.0701804
-0.0710322
-0.071725
-0.0722416
-0.0725606
-0.0726642
-0.0725275
-0.0721333
-0.071453
-0.0704723
-0.0691587
-0.0675041
-0.0654719
-0.0630653
-0.060243
-0.0570267
-0.053369
-0.0493192
-0.0448202
-0.0399598
-0.0346636
-0.02907
-0.0230729
-0.0168732
-0.0103053
-0.00362833
-0.0430889
-0.0448673
-0.0464721
-0.0479919
-0.0495092
-0.0510513
-0.0526061
-0.0541513
-0.0556693
-0.05715
-0.0585862
-0.0599701
-0.061292
-0.0625403
-0.0637019
-0.0647632
-0.0657088
-0.0665241
-0.0671915
-0.0676949
-0.0680139
-0.0681317
-0.068025
-0.0676773
-0.067062
-0.0661654
-0.064957
-0.0634289
-0.0615467
-0.0593129
-0.0566885
-0.0536928
-0.0502808
-0.0464968
-0.0422868
-0.0377302
-0.032757
-0.0274934
-0.0218411
-0.0159842
-0.00977164
-0.00344124
-0.0403512
-0.0419853
-0.0434778
-0.0449013
-0.0463238
-0.0477674
-0.0492219
-0.0506683
-0.0520911
-0.0534811
-0.0548311
-0.056134
-0.0573803
-0.0585592
-0.0596584
-0.0606651
-0.0615648
-0.0623438
-0.0629852
-0.063474
-0.0637909
-0.06392
-0.0638392
-0.0635331
-0.0629766
-0.0621565
-0.0610443
-0.0596321
-0.0578876
-0.0558126
-0.0533701
-0.0505772
-0.0473915
-0.0438527
-0.0399096
-0.0356344
-0.0309613
-0.0260055
-0.020676
-0.0151419
-0.00926486
-0.00326346
-0.0378516
-0.039354
-0.0407433
-0.0420776
-0.0434119
-0.0447642
-0.0461256
-0.0474799
-0.0488138
-0.0501187
-0.0513879
-0.0526142
-0.0537889
-0.0549019
-0.0559415
-0.0568957
-0.0577511
-0.0584943
-0.0591099
-0.0595832
-0.0598963
-0.0600339
-0.0599753
-0.059706
-0.059202
-0.0584511
-0.0574261
-0.0561193
-0.0545002
-0.05257
-0.0502936
-0.0476862
-0.0447075
-0.0413935
-0.0376956
-0.0336795
-0.0292834
-0.0246127
-0.0195834
-0.0143506
-0.00878788
-0.00309604
-0.0355855
-0.0369687
-0.0382638
-0.0395164
-0.0407699
-0.0420383
-0.043314
-0.0445835
-0.0458353
-0.0470614
-0.0482554
-0.0494106
-0.0505184
-0.0515695
-0.052553
-0.0534576
-0.0542705
-0.0549794
-0.0555695
-0.056027
-0.0563348
-0.0564787
-0.0564388
-0.0562015
-0.0557442
-0.0550551
-0.0541084
-0.0528967
-0.0513909
-0.0495916
-0.0474657
-0.0450266
-0.042236
-0.0391264
-0.0356519
-0.0318725
-0.0277301
-0.0233215
-0.0185687
-0.0136147
-0.00834356
-0.00294001
-0.03355
-0.0348263
-0.0360365
-0.0372151
-0.0383953
-0.0395876
-0.0407856
-0.041978
-0.0431548
-0.044309
-0.0454342
-0.0465238
-0.0475701
-0.048564
-0.0494954
-0.0503537
-0.051127
-0.0518033
-0.0523688
-0.0528105
-0.0531122
-0.0532603
-0.053236
-0.0530263
-0.05261
-0.0519754
-0.0510984
-0.0499714
-0.0485669
-0.046885
-0.0448941
-0.0426061
-0.0399847
-0.0370593
-0.0337865
-0.0302211
-0.0263087
-0.0221384
-0.0176376
-0.0129387
-0.00793473
-0.00279636
-0.0317441
-0.0329259
-0.0340605
-0.035173
-0.0362877
-0.037412
-0.0385405
-0.0396638
-0.0407734
-0.0418628
-0.0429259
-0.0439565
-0.0449469
-0.0458889
-0.0467729
-0.0475888
-0.0483255
-0.0489716
-0.049514
-0.0499405
-0.0502354
-0.050386
-0.0503745
-0.0501884
-0.0498074
-0.0492205
-0.0484045
-0.0473521
-0.046037
-0.0444588
-0.0425875
-0.0404336
-0.0379623
-0.0352008
-0.0321077
-0.0287334
-0.0250268
-0.0210701
-0.0167959
-0.0123268
-0.00756428
-0.00266612
-0.0301688
-0.0312683
-0.0323369
-0.0333914
-0.0344487
-0.0355134
-0.0365809
-0.0376435
-0.038694
-0.0397262
-0.0407345
-0.0417127
-0.0426537
-0.0435495
-0.0443911
-0.0451692
-0.0458729
-0.0464917
-0.047013
-0.0474251
-0.0477132
-0.0478651
-0.0478638
-0.0476973
-0.0473464
-0.0468004
-0.0460371
-0.0450492
-0.0438116
-0.0423235
-0.0405563
-0.0385192
-0.0361791
-0.0335608
-0.030625
-0.0274183
-0.0238924
-0.0201239
-0.0160497
-0.0117838
-0.0072352
-0.00255036
-0.0288277
-0.0298573
-0.0308697
-0.0318747
-0.0328829
-0.0338967
-0.034912
-0.0359226
-0.0369223
-0.0379055
-0.0388666
-0.0397998
-0.040698