/*--------------------------------*- C++ -*----------------------------------*\
  =========                 |
  \\      /  F ield         | OpenFOAM: The Open Source CFD Toolbox
   \\    /   O peration     | Website:  https://openfoam.org
    \\  /    A nd           | Version:  7
     \\/     M anipulation  |
\*---------------------------------------------------------------------------*/
FoamFile
{
    version     2.0;
    format      ascii;
    class       volScalarField;
    location    "10";
    object      p;
}
// * * * * * * * * * * * * * * * * * * * * * * * * * * * * * * * * * * * * * //

dimensions      [0 2 -2 0 0 0 0];

internalField   nonuniform List<scalar> 
6386
(
-0.314919
-0.317069
-0.319424
-0.322048
-0.321157
-0.325009
-0.323823
-0.328374
-0.32681
-0.324256
-0.332186
-0.33018
-0.327195
-0.323449
-0.336513
-0.333972
-0.330511
-0.326276
-0.341408
-0.33823
-0.334246
-0.329492
-0.324503
-0.346916
-0.342995
-0.338442
-0.333137
-0.32761
-0.322115
-0.353075
-0.348308
-0.343141
-0.33725
-0.331134
-0.324946
-0.318304
-0.359917
-0.354204
-0.348384
-0.341867
-0.335087
-0.32808
-0.320381
-0.311899
-0.367464
-0.360712
-0.354206
-0.347015
-0.339472
-0.331486
-0.322499
-0.312283
-0.299517
-0.375728
-0.367855
-0.360633
-0.352707
-0.344271
-0.335105
-0.324563
-0.312414
-0.297942
-0.283871
-0.384705
-0.375643
-0.367677
-0.358933
-0.349442
-0.338847
-0.326458
-0.312208
-0.295965
-0.280242
-0.394373
-0.38407
-0.375328
-0.365659
-0.354911
-0.342585
-0.328065
-0.311592
-0.29357
-0.276311
-0.404679
-0.393106
-0.38355
-0.372818
-0.360561
-0.346167
-0.329265
-0.310501
-0.290733
-0.272031
-0.415548
-0.402692
-0.392268
-0.380305
-0.366233
-0.349425
-0.329946
-0.308876
-0.287424
-0.267358
-0.426868
-0.412738
-0.401372
-0.387971
-0.371729
-0.352189
-0.330002
-0.306658
-0.283604
-0.262245
-0.43849
-0.423111
-0.410711
-0.395619
-0.376829
-0.354291
-0.329335
-0.303788
-0.279226
-0.256645
-0.450227
-0.43364
-0.420091
-0.403009
-0.381299
-0.355571
-0.32785
-0.300206
-0.27424
-0.25051
-0.461853
-0.444113
-0.429273
-0.409867
-0.384906
-0.355877
-0.325456
-0.295846
-0.268589
-0.243793
-0.473104
-0.454279
-0.43798
-0.415898
-0.387424
-0.355068
-0.322062
-0.290644
-0.262217
-0.23645
-0.483685
-0.463852
-0.4459
-0.420803
-0.388639
-0.353012
-0.317585
-0.284532
-0.255065
-0.22844
-0.493274
-0.472518
-0.452698
-0.424286
-0.388354
-0.349588
-0.31194
-0.277444
-0.247078
-0.219724
-0.50153
-0.47994
-0.458029
-0.426069
-0.386392
-0.344685
-0.30505
-0.269317
-0.238204
-0.210269
-0.508103
-0.485773
-0.46155
-0.425896
-0.382594
-0.338204
-0.296843
-0.260091
-0.228398
-0.200046
-0.512644
-0.489665
-0.462938
-0.423543
-0.376826
-0.330058
-0.287252
-0.249711
-0.21762
-0.189041
-0.514813
-0.491276
-0.461896
-0.418816
-0.368976
-0.320172
-0.276218
-0.238124
-0.205834
-0.177232
-0.514295
-0.490285
-0.458168
-0.411558
-0.358955
-0.308492
-0.263696
-0.225288
-0.192991
-0.16453
-0.510801
-0.486405
-0.451541
-0.40165
-0.346702
-0.29498
-0.249662
-0.211182
-0.179041
-0.150742
-0.504083
-0.479385
-0.44185
-0.389013
-0.332181
-0.279617
-0.234105
-0.195803
-0.163984
-0.135692
-0.493936
-0.46903
-0.428978
-0.373603
-0.31538
-0.262393
-0.217006
-0.179155
-0.147894
-0.119576
-0.480208
-0.455199
-0.412853
-0.355412
-0.296307
-0.243304
-0.198345
-0.161283
-0.130761
-0.10303
-0.4628
-0.437807
-0.393456
-0.33447
-0.274996
-0.222361
-0.178172
-0.142351
-0.112503
-0.085926
-0.441669
-0.416824
-0.370812
-0.310849
-0.251511
-0.199653
-0.156799
-0.122119
-0.0932817
-0.0681338
-0.416829
-0.392276
-0.344996
-0.284653
-0.225954
-0.175378
-0.134006
-0.100772
-0.0731906
-0.0496573
-0.388348
-0.36426
-0.316172
-0.255968
-0.198421
-0.149521
-0.109929
-0.0783969
-0.0523058
-0.0305784
-0.356348
-0.332953
-0.284606
-0.224782
-0.169017
-0.122185
-0.0846762
-0.055086
-0.0307036
-0.0110037
-0.321008
-0.298587
-0.250424
-0.191263
-0.137869
-0.0935035
-0.0583692
-0.0309338
-0.00846074
0.00898498
-0.282558
-0.261381
-0.213026
-0.156239
-0.105245
-0.0636303
-0.031136
-0.00604209
0.0143365
0.0292844
-0.241213
-0.221473
-0.173415
-0.119464
-0.071332
-0.0327319
-0.00310166
0.019494
0.0375331
0.0495027
-0.197226
-0.178854
-0.132327
-0.0811894
-0.0363091
-0.000972931
0.0256307
0.045604
0.0608455
0.0687698
-0.151018
-0.134172
-0.0897674
-0.0417054
-0.000380135
0.0314842
0.0549692
0.0722172
0.0840032
0.086621
-0.103002
-0.0877683
-0.0459363
-0.00129579
0.036226
0.0644602
0.0847642
0.099133
0.107048
0.105142
-0.0534948
-0.0400789
-0.00114004
0.0397565
0.0732691
0.0977495
0.114764
0.125953
0.129991
0.129237
-0.00291165
0.00849258
0.0442744
0.0811608
0.110503
0.131129
0.144702
0.152507
0.153479
0.153438
0.0483147
0.0575473
0.0899472
0.122619
0.147675
0.164371
0.174406
0.178865
0.177216
0.176292
0.0997474
0.106682
0.135516
0.16383
0.184527
0.19725
0.203701
0.204894
0.200771
0.198187
0.150947
0.15549
0.180622
0.204491
0.220803
0.229546
0.232419
0.230421
0.223817
0.219135
0.201478
0.203566
0.22491
0.244302
0.256249
0.261044
0.260384
0.255269
0.246175
0.239195
0.250906
0.250513
0.268033
0.282972
0.290616
0.291535
0.287416
0.279265
0.267699
0.258339
0.298813
0.295942
0.309653
0.320214
0.323662
0.320813
0.31334
0.302254
0.288268
0.276513
0.344788
0.339477
0.349448
0.355755
0.355157
0.348682
0.337987
0.324087
0.307766
0.293646
0.388443
0.38076
0.387108
0.389335
0.384877
0.374952
0.361195
0.344628
0.326082
0.309662
0.429408
0.419453
0.422343
0.420707
0.412613
0.399444
0.382812
0.363747
0.343107
0.324484
0.467336
0.45524
0.45488
0.44964
0.438171
0.421993
0.402697
0.381322
0.358742
0.33804
0.501908
0.48783
0.484471
0.475925
0.46137
0.442446
0.42072
0.397242
0.37289
0.350261
0.532834
0.516958
0.510887
0.499368
0.482047
0.460662
0.436761
0.411405
0.385467
0.361086
0.559853
0.542388
0.533927
0.5198
0.500057
0.47652
0.450715
0.423721
0.396394
0.370463
0.582738
0.563914
0.553415
0.537069
0.515273
0.48991
0.462493
0.43411
0.405605
0.378344
0.601298
0.581362
0.569201
0.551052
0.527588
0.500743
0.472017
0.442508
0.413044
0.384692
0.615375
0.59459
0.581163
0.561644
0.536914
0.508945
0.479225
0.448861
0.418665
0.389473
0.62485
0.60349
0.589209
0.568767
0.543186
0.514459
0.484069
0.45313
0.422441
0.39268
0.629641
0.607989
0.593276
0.572367
0.546354
0.517245
0.486517
0.455287
0.424357
0.394327
0.629706
0.608047
0.593329
0.572414
0.546395
0.517279
0.486545
0.455312
0.424379
0.394361
0.625043
0.603663
0.589366
0.568905
0.543304
0.514558
0.484149
0.453192
0.422489
0.39272
0.615687
0.594869
0.581416
0.561865
0.537101
0.509097
0.479343
0.448947
0.418722
0.389501
0.601715
0.581736
0.569537
0.551343
0.52783
0.500936
0.472161
0.442605
0.413099
0.384708
0.583244
0.564368
0.55382
0.537416
0.515556
0.49013
0.462651
0.434211
0.405654
0.37835
0.560428
0.542904
0.534386
0.520187
0.500368
0.476755
0.450879
0.423819
0.396436
0.370459
0.533458
0.517519
0.511383
0.499783
0.482375
0.460905
0.436924
0.411499
0.385503
0.361075
0.502561
0.488418
0.484989
0.476354
0.461704
0.442689
0.420879
0.397331
0.372922
0.350245
0.467998
0.455839
0.455408
0.450073
0.438504
0.422233
0.402853
0.381408
0.358772
0.338022
0.430063
0.420048
0.422867
0.421134
0.41294
0.399677
0.382962
0.36383
0.343137
0.324467
0.389076
0.381338
0.387618
0.38975
0.385193
0.375176
0.36134
0.344711
0.326113
0.309646
0.345387
0.340027
0.349936
0.356153
0.355459
0.348898
0.338128
0.32417
0.307801
0.293632
0.299368
0.296457
0.310112
0.32059
0.32395
0.32102
0.313478
0.302338
0.288306
0.276501
0.251412
0.250986
0.268459
0.283323
0.290887
0.291733
0.287551
0.279351
0.267741
0.258328
0.201928
0.203993
0.225299
0.244627
0.256503
0.261233
0.260517
0.255358
0.246222
0.239184
0.151341
0.155868
0.180973
0.204789
0.22104
0.229726
0.23255
0.230514
0.223872
0.219123
0.100084
0.10701
0.135828
0.1641
0.184747
0.197422
0.20383
0.204991
0.200838
0.198177
0.0485948
0.0578268
0.0902199
0.122862
0.147878
0.164535
0.174533
0.178966
0.177301
0.176299
-0.00268592
0.00872401
0.0445088
0.0813764
0.110689
0.131285
0.144828
0.152611
0.153588
0.153493
-0.0533204
-0.0398934
-0.000942487
0.0399459
0.0734398
0.097899
0.11489
0.126058
0.130122
0.129413
-0.102875
-0.0876263
-0.0457738
-0.00113156
0.036381
0.0646027
0.0848918
0.0992444
0.107196
0.105465
-0.150935
-0.13407
-0.0896378
-0.0415653
-0.000240659
0.031619
0.0550974
0.0723356
0.0841482
0.086905
-0.197183
-0.17879
-0.132228
-0.0810725
-0.0361852
-0.000847551
0.0257552
0.0457221
0.0609722
0.0689676
-0.241205
-0.221443
-0.173345
-0.11937
-0.0712237
-0.0326175
-0.00298518
0.0196054
0.0376429
0.0496465
-0.28258
-0.261378
-0.212984
-0.156166
-0.105152
-0.0635278
-0.0310296
-0.00593943
0.0144345
0.0294021
-0.321057
-0.29861
-0.250407
-0.19121
-0.137792
-0.093413
-0.0582731
-0.0308399
-0.00837176
0.00908593
-0.356419
-0.332999
-0.28461
-0.224747
-0.168954
-0.122106
-0.0845903
-0.0550009
-0.0306229
-0.0109164
-0.388438
-0.364325
-0.316195
-0.255949
-0.198372
-0.149454
-0.109853
-0.0783203
-0.0522329
-0.030502
-0.416935
-0.392357
-0.345036
-0.284649
-0.225918
-0.175322
-0.133939
-0.100703
-0.0731247
-0.0495889
-0.441786
-0.416918
-0.370866
-0.310859
-0.251487
-0.199606
-0.156742
-0.122059
-0.093222
-0.0680715
-0.462926
-0.437911
-0.393522
-0.334493
-0.274984
-0.222325
-0.178122
-0.142298
-0.112449
-0.0858687
-0.48034
-0.455311
-0.412929
-0.355445
-0.296305
-0.243277
-0.198304
-0.161235
-0.130711
-0.102977
-0.494071
-0.469146
-0.429061
-0.373645
-0.315386
-0.262375
-0.216972
-0.179113
-0.147849
-0.119527
-0.504219
-0.479504
-0.441939
-0.389062
-0.332195
-0.279605
-0.234077
-0.195766
-0.163943
-0.135647
-0.510937
-0.486524
-0.451633
-0.401705
-0.346722
-0.294974
-0.24964
-0.21115
-0.179004
-0.150701
-0.514428
-0.490403
-0.458262
-0.411617
-0.358981
-0.308492
-0.263679
-0.225261
-0.192957
-0.164492
-0.514942
-0.49139
-0.461989
-0.418878
-0.369006
-0.320178
-0.276205
-0.2381
-0.205804
-0.177197
-0.512767
-0.489775
-0.463029
-0.423607
-0.37686
-0.330067
-0.287244
-0.249691
-0.217594
-0.189009
-0.50822
-0.485878
-0.461639
-0.425961
-0.382631
-0.338217
-0.296839
-0.260075
-0.228374
-0.200017
-0.50164
-0.480039
-0.458114
-0.426132
-0.38643
-0.344701
-0.305049
-0.269304
-0.238183
-0.210242
-0.493376
-0.47261
-0.452779
-0.424348
-0.388393
-0.349606
-0.311941
-0.277434
-0.24706
-0.2197
-0.48378
-0.463937
-0.445976
-0.420863
-0.388678
-0.353032
-0.317588
-0.284524
-0.255049
-0.228418
-0.473191
-0.454357
-0.43805
-0.415955
-0.387463
-0.355089
-0.322068
-0.290638
-0.262203
-0.236431
-0.461932
-0.444184
-0.429337
-0.40992
-0.384945
-0.355899
-0.325464
-0.295843
-0.268577
-0.243776
-0.450299
-0.433705
-0.420149
-0.403058
-0.381336
-0.355594
-0.32786
-0.300204
-0.27423
-0.250495
-0.438555
-0.423169
-0.410765
-0.395664
-0.376864
-0.354314
-0.329346
-0.303789
-0.279219
-0.256631
-0.426926
-0.41279
-0.40142
-0.388012
-0.371763
-0.352212
-0.330014
-0.30666
-0.283599
-0.262234
-0.4156
-0.40274
-0.392311
-0.380343
-0.366264
-0.349447
-0.329958
-0.30888
-0.287421
-0.267349
-0.404725
-0.393148
-0.383588
-0.372852
-0.36059
-0.346188
-0.329278
-0.310506
-0.290732
-0.272024
-0.394414
-0.384108
-0.375363
-0.36569
-0.354937
-0.342606
-0.328079
-0.311598
-0.29357
-0.276305
-0.384742
-0.375677
-0.367708
-0.358961
-0.349466
-0.338866
-0.326472
-0.312215
-0.295966
-0.280238
-0.375761
-0.367885
-0.360661
-0.352732
-0.344292
-0.335123
-0.324576
-0.312422
-0.297945
-0.28387
-0.367493
-0.360739
-0.354231
-0.347038
-0.339492
-0.331502
-0.322512
-0.312292
-0.359943
-0.354229
-0.348408
-0.341888
-0.335105
-0.328095
-0.320393
-0.311908
-0.353098
-0.348331
-0.343163
-0.337269
-0.33115
-0.32496
-0.318316
-0.346937
-0.343016
-0.338461
-0.333154
-0.327625
-0.322128
-0.341428
-0.338249
-0.334264
-0.329508
-0.324517
-0.336531
-0.333991
-0.330528
-0.326291
-0.332203
-0.330198
-0.327212
-0.323463
-0.328391
-0.326827
-0.324271
-0.325026
-0.32384
-0.322065
-0.321174
-0.319441
-0.317087
-0.199404
-0.208085
-0.216219
-0.223829
-0.230939
-0.237575
-0.243762
-0.249524
-0.254885
-0.259863
-0.264481
-0.184206
-0.192523
-0.200412
-0.207895
-0.214998
-0.221744
-0.228155
-0.234255
-0.240068
-0.245623
-0.25096
-0.17054
-0.178451
-0.186032
-0.193309
-0.200308
-0.207056
-0.213577
-0.219901
-0.22606
-0.232095
-0.238049
-0.158333
-0.165847
-0.173118
-0.180169
-0.187025
-0.193708
-0.200242
-0.206653
-0.212966
-0.219209
-0.225394
-0.147427
-0.154554
-0.161502
-0.16829
-0.174938
-0.181462
-0.187881
-0.19421
-0.200461
-0.206646
-0.212761
-0.13762
-0.144356
-0.150961
-0.157446
-0.163827
-0.170116
-0.176326
-0.182468
-0.188551
-0.194589
-0.200587
-0.128757
-0.135101
-0.141346
-0.147504
-0.153585
-0.1596
-0.165561
-0.17148
-0.177367
-0.183242
-0.18911
-0.120723
-0.126677
-0.132559
-0.138378
-0.144145
-0.149868
-0.155558
-0.161227
-0.166883
-0.172539
-0.178195
-0.113386
-0.118965
-0.124491
-0.129973
-0.135419
-0.140838
-0.146238
-0.151627
-0.157012
-0.1624
-0.167795
-0.106664
-0.111881
-0.11706
-0.122208
-0.127332
-0.13244
-0.137538
-0.142633
-0.147731
-0.152841
-0.157968
-0.100488
-0.105357
-0.110198
-0.115018
-0.119823
-0.12462
-0.129415
-0.134214
-0.139023
-0.143849
-0.148698
-0.0947993
-0.0993333
-0.103847
-0.108348
-0.112842
-0.117333
-0.121827
-0.12633
-0.130847
-0.135382
-0.139942
-0.0895323
-0.0937464
-0.0979476
-0.102142
-0.106334
-0.110527
-0.114727
-0.118937
-0.123163
-0.12741
-0.131681
-0.0846429
-0.0885528
-0.092456
-0.0963564
-0.100257
-0.104163
-0.108076
-0.112002
-0.115944
-0.119907
-0.123896
-0.0800843
-0.0837088
-0.0873301
-0.0909509
-0.0945741
-0.0982031
-0.101841
-0.105492
-0.10916
-0.112847
-0.116558
-0.0758118
-0.0791722
-0.0825286
-0.085885
-0.089245
-0.0926114
-0.0959871
-0.0993752
-0.102779
-0.106201
-0.109645
-0.0718184
-0.0749277
-0.0780331
-0.0811389
-0.0842488
-0.0873652
-0.0904906
-0.0936275
-0.0967784
-0.0999462
-0.103134
-0.0680792
-0.0709492
-0.0738171
-0.0766863
-0.0795596
-0.0824392
-0.0853271
-0.0882254
-0.0911362
-0.094062
-0.0970052
-0.0645598
-0.0672061
-0.0698517
-0.0724991
-0.0751504
-0.0778073
-0.0804714
-0.0831446
-0.0858287
-0.0885256
-0.0912376
-0.0612454
-0.0636836
-0.0661216
-0.0685614
-0.0710044
-0.0734522
-0.0759061
-0.0783675
-0.0808381
-0.0833195
-0.0858135
-0.0581204
-0.0603646
-0.0626089
-0.0648546
-0.0671031
-0.0693553
-0.0716123
-0.0738755
-0.0761461
-0.0784253
-0.0807148
-0.0551742
-0.0572372
-0.0593007
-0.0613656
-0.0634326
-0.0655024
-0.0675757
-0.0696537
-0.0717374
-0.0738279
-0.0759263
-0.0780338
-0.0523912
-0.0542871
-0.056183
-0.0580801
-0.0599786
-0.0618788
-0.0637813
-0.0656872
-0.0675971
-0.0695119
-0.0714325
-0.0733599
-0.0497522
-0.0514979
-0.0532422
-0.0549852
-0.0567279
-0.0584714
-0.0602161
-0.0619627
-0.0637117
-0.0654638
-0.0672198
-0.0689803
-0.0472754
-0.0488783
-0.0504792
-0.0520782
-0.0536764
-0.0552743
-0.0568725
-0.0584713
-0.0600712
-0.0616726
-0.0632762
-0.0648825
-0.0449455
-0.0464155
-0.0478835
-0.0493496
-0.0508143
-0.0522779
-0.0537408
-0.0552032
-0.0566654
-0.0581278
-0.0595908
-0.0610549
-0.0427506
-0.0440993
-0.0454457
-0.0467898
-0.0481319
-0.0494721
-0.0508107
-0.0521478
-0.0534835
-0.0548183
-0.0561523
-0.0574858
-0.04069
-0.0419277
-0.0431626
-0.0443949
-0.0456244
-0.0468514
-0.048076
-0.0492981
-0.050518
-0.0517357
-0.0529515
-0.0541656
-0.0387602
-0.0398963
-0.0410293
-0.0421592
-0.0432859
-0.0444093
-0.0455296
-0.0466467
-0.0477607
-0.0488717
-0.0499796
-0.0510847
-0.0369586
-0.0380022
-0.0390423
-0.0400788
-0.0411117
-0.0421408
-0.0431661
-0.0441876
-0.0452052
-0.046219
-0.0472289
-0.0482349
-0.0352836
-0.036243
-0.0371987
-0.0381505
-0.0390982
-0.0400416
-0.0409807
-0.0419154
-0.0428456
-0.0437713
-0.0446924
-0.0456088
-0.0337339
-0.0346173
-0.0354966
-0.0363716
-0.0372423
-0.0381082
-0.0389695
-0.0398258
-0.0406771
-0.0415233
-0.0423643
-0.0432
-0.032309
-0.0331239
-0.0339345
-0.0347405
-0.0355418
-0.0363381
-0.0371293
-0.0379152
-0.0386956
-0.0394705
-0.0402397
-0.041003
-0.031009
-0.0317626
-0.0325116
-0.0332559
-0.0339953
-0.0347293
-0.035458
-0.036181
-0.0368983
-0.0376096
-0.0383148
-0.0390137
-0.0298347
-0.0305339
-0.0312284
-0.0319179
-0.0326022
-0.0332812
-0.0339544
-0.0346218
-0.0352831
-0.0359382
-0.0365869
-0.0372291
-0.0287878
-0.0294392
-0.0300858
-0.0307272
-0.0313634
-0.0319939
-0.0326186
-0.0332373
-0.0338497
-0.0344557
-0.0350551
-0.0356476
-0.0278705
-0.0284804
-0.0290854
-0.0296853
-0.0302797
-0.0308685
-0.0314514
-0.032028
-0.0325983
-0.0331621
-0.033719
-0.034269
-0.0270853
-0.0276604
-0.0282307
-0.0287957
-0.029355
-0.0299086
-0.0304561
-0.0309975
-0.0315323
-0.0320605
-0.0325818
-0.0330961
-0.0264398
-0.026986
-0.0275272
-0.0280632
-0.0285936
-0.0291182
-0.0296367
-0.0301491
-0.030655
-0.0311542
-0.0316466
-0.032132
-0.0259411
-0.0264648
-0.0269834
-0.0274967
-0.0280045
-0.0285065
-0.0290026
-0.0294924
-0.0299759
-0.0304527
-0.0309227
-0.0313858
-0.0255925
-0.0261002
-0.0266028
-0.0271002
-0.0275922
-0.0280785
-0.028559
-0.0290333
-0.0295014
-0.0299631
-0.030418
-0.0308662
-0.0254174
-0.0259148
-0.0264073
-0.0268946
-0.0273765
-0.0278528
-0.0283234
-0.0287882
-0.0292468
-0.0296993
-0.0301454
-0.0305849
0.097287
0.0786802
0.0614667
0.044525
0.0265798
0.00833725
-0.00950836
-0.0268813
-0.043826
-0.0602866
-0.0761927
-0.091508
-0.106223
-0.120266
-0.134098
-0.146936
-0.158766
-0.169839
-0.18029
-0.190145
0.088103
0.0700759
0.0516085
0.0353049
0.019031
0.00238744
-0.0138711
-0.0294929
-0.0446087
-0.0592716
-0.0734299
-0.0870169
-0.0999576
-0.112168
-0.124118
-0.135558
-0.146337
-0.156524
-0.166214
-0.17544
0.0772332
0.0603746
0.0422068
0.0269023
0.0125784
-0.00206549
-0.016573
-0.0304954
-0.0438869
-0.0568678
-0.06943
-0.0815284
-0.0931354
-0.104247
-0.114728
-0.125123
-0.135129
-0.144617
-0.153645
-0.162277
0.0659242
0.0505885
0.033671
0.019586
0.00693938
-0.00590167
-0.0188186
-0.0312909
-0.0432435
-0.0548036
-0.066012
-0.0768359
-0.0872425
-0.0972195
-0.106763
-0.116241
-0.125402
-0.134139
-0.142503
-0.150557
0.0553567
0.0416275
0.0262712
0.0134468
0.00219197
-0.00911492
-0.0205991
-0.0317807
-0.0424902
-0.0528231
-0.0628486
-0.0725495
-0.0818816
-0.0908304
-0.0994503
-0.108277
-0.116744
-0.12481
-0.132575
-0.140105
0.0458871
0.0336183
0.0198389
0.0082389
-0.00183836
-0.0118548
-0.0220706
-0.0320952
-0.0417194
-0.0509996
-0.0600228
-0.0688088
-0.0773566
-0.0856702
-0.0937406
-0.101305
-0.108909
-0.116403
-0.123675
-0.130734
0.0374877
0.0264942
0.0142098
0.0037814
-0.00526433
-0.014184
-0.0232873
-0.0322757
-0.0409393
-0.0492997
-0.0574364
-0.0653771
-0.0731115
-0.080622
-0.0878957
-0.094937
-0.101975
-0.108923
-0.115698
-0.122299
0.0300634
0.0201938
0.00928388
-4.82258e-05
-0.0081757
-0.016154
-0.0242888
-0.0323559
-0.0401653
-0.0477154
-0.0550712
-0.0622649
-0.0692943
-0.0761508
-0.0828372
-0.0893575
-0.0958586
-0.102268
-0.108541
-0.114684
0.0235269
0.0146602
0.00498857
-0.0033422
-0.0106505
-0.0178138
-0.0251067
-0.0323598
-0.0394105
-0.0462455
-0.0529156
-0.0594522
-0.065857
-0.0721223
-0.0782497
-0.0842561
-0.0902849
-0.0962168
-0.10203
-0.107746
0.0177939
0.00982438
0.0012545
-0.0061776
-0.0127568
-0.0192086
-0.0257675
-0.0323031
-0.0386804
-0.044882
-0.0509478
-0.0569069
-0.0627655
-0.0685219
-0.0741771
-0.0797356
-0.0852176
-0.0906708
-0.0960682
-0.101397
0.0127797
0.00561147
-0.00198549
-0.00861877
-0.0145499
-0.0203762
-0.0262917
-0.0321938
-0.037972
-0.0436092
-0.0491361
-0.0545783
-0.0599429
-0.0652301
-0.0704386
-0.0755652
-0.0805803
-0.0856057
-0.0906158
-0.0955781
0.00840281
0.00194951
-0.00479199
-0.0107185
-0.0160734
-0.0213468
-0.026695
-0.0320356
-0.0372792
-0.0424099
-0.0474517
-0.0524252
-0.0573364
-0.0621848
-0.0669686
-0.0716871
-0.0763367
-0.0809902
-0.0856303
-0.0902345
0.00458929
-0.0012265
-0.00721757
-0.0125202
-0.0173619
-0.022144
-0.0269895
-0.0318308
-0.0365958
-0.0412711
-0.0458752
-0.0504248
-0.0549251
-0.0593762
-0.0637775
-0.0681304
-0.0724359
-0.0767429
-0.0810343
-0.0852974
0.00127314
-0.00397397
-0.00930731
-0.0140595
-0.0184437
-0.0227874
-0.0271854
-0.0315813
-0.035917
-0.0401819
-0.0443902
-0.0485553
-0.0526818
-0.0567703
-0.0608211
-0.0648366
-0.0688202
-0.0728083
-0.0767773
-0.0807203
-0.00160369
-0.00634314
-0.0110999
-0.0153664
-0.0193419
-0.0232932
-0.0272915
-0.0312889
-0.0352391
-0.0391337
-0.0429839
-0.0468002
-0.0505858
-0.0543405
-0.0580633
-0.0617564
-0.0654277
-0.0691281
-0.072804
-0.0764522
-0.00409192
-0.00837775
-0.0126287
-0.0164661
-0.0200758
-0.0236747
-0.0273147
-0.0309548
-0.0345579
-0.0381179
-0.041644
-0.0451449
-0.0486238
-0.0520817
-0.0555199
-0.0589392
-0.0623374
-0.0656985
-0.0690691
-0.0724436
-0.00623579
-0.0101157
-0.0139222
-0.0173799
-0.0206615
-0.0239429
-0.0272605
-0.0305789
-0.0338684
-0.0371246
-0.0403552
-0.0435668
-0.0467616
-0.04994
-0.0531022
-0.0562476
-0.0593745
-0.0624728
-0.0655834
-0.0687024
-0.00807395
-0.0115899
-0.0150052
-0.0181263
-0.0211129
-0.0241074
-0.0271342
-0.030162
-0.0331672
-0.0361468
-0.039107
-0.0420528
-0.0449858
-0.047906
-0.0508135
-0.0537082
-0.05659
-0.0594558
-0.0623281
-0.0652048
-0.00964029
-0.0128293
-0.0158996
-0.0187217
-0.0214425
-0.0241774
-0.026941
-0.0297058
-0.032453
-0.0351806
-0.0378938
-0.0405963
-0.0432893
-0.0459726
-0.0486465
-0.051311
-0.0539663
-0.0566116
-0.0592605
-0.061911
-0.0109648
-0.0138597
-0.0166249
-0.0191809
-0.021662
-0.0241614
-0.0266865
-0.0292131
-0.0317259
-0.0342239
-0.0367113
-0.0391911
-0.0416638
-0.0441294
-0.0465879
-0.0490395
-0.0514845
-0.053923
-0.0563641
-0.0588056
-0.0120741
-0.0147041
-0.017199
-0.0195177
-0.0217823
-0.0240679
-0.0263767
-0.0286871
-0.0309867
-0.0332753
-0.0355563
-0.037832
-0.0401027
-0.0423681
-0.0446282
-0.0468832
-0.0491334
-0.0513791
-0.0536273
-0.0558749
-0.0129922
-0.0153831
-0.0176382
-0.019745
-0.0218139
-0.0239053
-0.0260175
-0.0281314
-0.030237
-0.0323344
-0.0344266
-0.0365151
-0.0386001
-0.0406813
-0.0427587
-0.0448324
-0.046903
-0.0489708
-0.0510415
-0.0531095
-0.0137409
-0.0159157
-0.0179578
-0.0198751
-0.0217669
-0.0236818
-0.0256154
-0.0275507
-0.0294797
-0.0314027
-0.0333221
-0.0352391
-0.0371535
-0.0390647
-0.0409724
-0.0428764
-0.0447772
-0.0466769
-0.0485873
-0.0504925
-0.0143399
-0.0163194
-0.0181718
-0.0199195
-0.021651
-0.0234054
-0.0251767
-0.0269497
-0.028718
-0.0304821
-0.032244
-0.0340046
-0.0357639
-0.0375214
-0.0392772
-0.0410313
-0.0427833
-0.0445314
-0.0462672
-0.0480074
-0.0148073
-0.0166101
-0.0182934
-0.019889
-0.0214754
-0.0230838
-0.0247073
-0.0263327
-0.0279544
-0.0295732
-0.0311907
-0.0328075
-0.0344233
-0.0360375
-0.0376498
-0.03926
-0.0408676
-0.0424719
-0.0440706
-0.0456719
-0.0151598
-0.0168025
-0.0183348
-0.019794
-0.0212489
-0.0227246
-0.0242136
-0.0257045
-0.0271928
-0.0286789
-0.0301643
-0.0316494
-0.0331337
-0.0346167
-0.0360982
-0.0375779
-0.0390555
-0.0405307
-0.0420022
-0.0434739
-0.0154127
-0.0169105
-0.018308
-0.0196447
-0.0209805
-0.0223354
-0.0237023
-0.0250709
-0.0264376
-0.0278029
-0.0291677
-0.0305325
-0.0318967
-0.0332599
-0.0346216
-0.0359816
-0.0373396
-0.0386954
-0.0400482
-0.0414
-0.0155803
-0.016947
-0.018224
-0.0194506
-0.0206787
-0.0219241
-0.0231799
-0.0244375
-0.0256936
-0.0269488
-0.0282039
-0.0294589
-0.0307134
-0.0319669
-0.0332191
-0.0344696
-0.0357181
-0.0369644
-0.038208
-0.03945
-0.0156759
-0.016924
-0.0180932
-0.0192211
-0.0203517
-0.0214978
-0.0226529
-0.0238098
-0.0249656
-0.0261207
-0.0272758
-0.0284308
-0.0295854
-0.030739
-0.0318912
-0.0330417
-0.0341901
-0.0353363
-0.0364798
-0.0376212
-0.0157115
-0.0168528
-0.0179257
-0.0189649
-0.0200075
-0.0210637
-0.0221277
-0.0231933
-0.0242581
-0.0253225
-0.0263868
-0.027451
-0.0285147
-0.0295774
-0.0306386
-0.0316979
-0.0327552
-0.0338101
-0.0348622
-0.0359118
-0.0156986
-0.0167436
-0.0177306
-0.0186902
-0.0196536
-0.0206286
-0.0216103
-0.0225934
-0.0235761
-0.0245583
-0.0255404
-0.0265224
-0.0275036
-0.0284838
-0.0294624
-0.030439
-0.0314135
-0.0323854
-0.0333544
-0.0343205
-0.0156474
-0.0166062
-0.0175165
-0.018405
-0.0192972
-0.0201991
-0.0211067
-0.0220156
-0.0229241
-0.0238323
-0.0247402
-0.0256479
-0.0265547
-0.0274603
-0.0283641
-0.029266
-0.0301655
-0.0310623
-0.031956
-0.0328467
-0.0155675
-0.0164492
-0.0172914
-0.0181165
-0.0189449
-0.0197815
-0.0206227
-0.021465
-0.022307
-0.0231486
-0.02399
-0.0248308
-0.0256707
-0.0265091
-0.0273458
-0.0281803
-0.0290123
-0.0298415
-0.0306674
-0.0314901
-0.0154675
-0.0162808
-0.0170629
-0.0178317
-0.0186034
-0.0193816
-0.0201637
-0.0209467
-0.0217294
-0.0225116
-0.0232935
-0.0240746
-0.0248546
-0.0256331
-0.0264097
-0.0271839
-0.0279555
-0.0287241
-0.0294894
-0.0302511
-0.0153552
-0.0161085
-0.0168378
-0.017557
-0.0182786
-0.0190054
-0.0197352
-0.0204657
-0.0211959
-0.0219256
-0.0226547
-0.023383
-0.0241099
-0.0248352
-0.0255584
-0.0262792
-0.0269971
-0.027712
-0.0284234
-0.0291311
-0.0152379
-0.015939
-0.0166225
-0.0172986
-0.0179765
-0.0186583
-0.0193425
-0.0200271
-0.0207114
-0.021395
-0.0220779
-0.0227598
-0.0234402
-0.0241188
-0.0247951
-0.0254689
-0.0261398
-0.0268075
-0.0274715
-0.0281318
-0.0151221
-0.0157787
-0.0164231
-0.0170622
-0.0177026
-0.0183459
-0.0189908
-0.0196359
-0.0202806
-0.0209245
-0.0215675
-0.0222093
-0.0228494
-0.0234875
-0.0241233
-0.0247563
-0.0253864
-0.026013
-0.0266362
-0.0272556
-0.0150137
-0.0156334
-0.0162453
-0.0168536
-0.0174627
-0.0180736
-0.0186856
-0.0192975
-0.0199089
-0.0205194
-0.0211287
-0.0217366
-0.0223427
-0.0229467
-0.0235482
-0.0241468
-0.0247423
-0.0253343
-0.0259223
-0.0265058
-0.0149182
-0.0155085
-0.0160945
-0.0166781
-0.0172619
-0.0178468
-0.0184321
-0.0190171
-0.0196014
-0.0201846
-0.0207664
-0.0213465
-0.0219247
-0.0225005
-0.0230737
-0.0236439
-0.0242109
-0.0247743
-0.0253338
-0.0258889
-0.0148405
-0.0154092
-0.0159761
-0.0165413
-0.0171063
-0.0176715
-0.0182367
-0.0188013
-0.0193649
-0.0199272
-0.0204879
-0.0210467
-0.0216033
-0.0221574
-0.0227087
-0.0232569
-0.0238018
-0.0243429
-0.02488
-0.0254128
-0.014785
-0.0153402
-0.0158948
-0.0164481
-0.0170006
-0.0175526
-0.018104
-0.0186545
-0.0192037
-0.0197512
-0.0202969
-0.0208405
-0.0213817
-0.0219202
-0.0224558
-0.0229881
-0.023517
-0.0240421
-0.0245632
-0.0250801
-0.0147558
-0.0153063
-0.0158571
-0.0164066
-0.0169548
-0.0175018
-0.0180477
-0.0185921
-0.0191348
-0.0196755
-0.0202138
-0.0207496
-0.0212826
-0.0218125
-0.0223392
-0.0228623
-0.0233817
-0.0238972
-0.0244084
-0.0249151
0.105648
0.107092
0.109742
0.113494
0.118136
0.123628
0.12977
0.136522
0.143626
0.151018
0.15832
0.165423
0.171748
0.177157
0.180743
0.182458
0.180788
0.176096
0.16541
0.150131
0.122476
0.104626
0.106006
0.108531
0.112096
0.116482
0.121638
0.127351
0.133563
0.14
0.146574
0.152892
0.158819
0.163767
0.167576
0.169367
0.169046
0.16526
0.158163
0.145661
0.128618
0.105902
0.103505
0.104813
0.107196
0.110549
0.114649
0.119431
0.124671
0.130298
0.136022
0.14174
0.147045
0.151792
0.155401
0.157712
0.157908
0.155892
0.150565
0.142045
0.129201
0.11276
0.0930525
0.102279
0.103508
0.105739
0.108865
0.112661
0.117047
0.121794
0.126813
0.131808
0.136657
0.140956
0.144547
0.146884
0.147796
0.146587
0.143138
0.136684
0.127283
0.114496
0.098683
0.0803856
0.100944
0.102089
0.104159
0.107046
0.110525
0.114501
0.118742
0.123141
0.127404
0.13139
0.134711
0.137193
0.138349
0.137991
0.135572
0.13095
0.123662
0.113708
0.101002
0.0857303
0.068504
0.0994974
0.100553
0.102456
0.105093
0.108242
0.111795
0.115519
0.119293
0.122827
0.125964
0.128346
0.129782
0.129857
0.128375
0.124934
0.119386
0.11149
0.101226
0.0886797
0.0740444
0.0579221
0.0979355
0.0988983
0.100627
0.103004
0.105813
0.108932
0.112135
0.115281
0.118097
0.120409
0.121898
0.122362
0.121464
0.119007
0.114718
0.108466
0.100154
0.0897845
0.0775347
0.0636301
0.0486081
0.0962564
0.0971224
0.09867
0.10078
0.103241
0.105921
0.108599
0.111123
0.113239
0.114761
0.115411
0.114986
0.113224
0.109942
0.104968
0.0982011
0.0896447
0.079336
0.0674989
0.0543577
0.0403811
0.0944584
0.0952242
0.0965864
0.0984221
0.100531
0.102768
0.104926
0.10684
0.10828
0.109054
0.108928
0.107705
0.10519
0.101223
0.0957147
0.0885991
0.0799457
0.0698213
0.0584702
0.0460924
0.0331022
0.0925405
0.0932035
0.0943767
0.0959347
0.0976888
0.0994859
0.101131
0.102454
0.103249
0.103326
0.10249
0.100562
0.0974031
0.0928858
0.0869792
0.079655
0.071025
0.0611744
0.0503526
0.0387289
0.026672
0.0905028
0.0910612
0.0920432
0.093322
0.0947224
0.0960853
0.0972316
0.0979881
0.0981743
0.0976091
0.0961357
0.0935967
0.0899001
0.0849534
0.0787706
0.0713546
0.0628436
0.0533314
0.0430637
0.0321789
0.0210035
0.0883463
0.0887992
0.0895892
0.0905901
0.0916406
0.0925798
0.0932445
0.0934649
0.0930846
0.0919371
0.0898992
0.0868403
0.0827078
0.0774415
0.071089
0.0636774
0.0553598
0.0462317
0.0365292
0.0263614
0.0160149
0.086073
0.0864204
0.0870193
0.0877459
0.0884539
0.0889838
0.0891892
0.0889081
0.0880075
0.0863395
0.0838114
0.0803206
0.0758465
0.0703583
0.0639273
0.0565982
0.0485307
0.0398173
0.0306801
0.0212013
0.0116307
0.0836861
0.0839291
0.0843392
0.0847981
0.0851738
0.085313
0.0850852
0.0843409
0.0829693
0.0808438
0.0778988
0.0740589
0.06933
0.0637053
0.0572728
0.0500889
0.0423133
0.0340326
0.0254519
0.0166301
0.00778335
0.0811898
0.0813308
0.0815563
0.0817562
0.0818132
0.0815834
0.0809523
0.0797861
0.0779947
0.0754744
0.0721835
0.0680718
0.0631659
0.0574789
0.0511088
0.0441192
0.0366648
0.0288246
0.0207855
0.0125863
0.00441294
0.07859
0.0786321
0.0786789
0.078631
0.0783859
0.0778117
0.0768103
0.0752652
0.0731065
0.0702528
0.0666835
0.0623708
0.0573572
0.051671
0.0454155
0.0386573
0.0315432
0.0241437
0.0166269
0.0090148
0.00146673
0.0758934
0.0758411
0.0757167
0.0754344
0.0749062
0.074015
0.0726783
0.0707988
0.068325
0.0651972
0.0614127
0.0569629
0.0519023
0.04627
0.0401707
0.0336713
0.0269083
0.0199436
0.012927
0.00586657
-0.00110174
0.0731083
0.0729668
0.0726806
0.0721791
0.0713893
0.0702102
0.0685752
0.066406
0.0636683
0.0603226
0.0563813
0.0518515
0.046796
0.0412616
0.035351
0.0291293
0.0227218
0.0161816
0.00964134
0.00309781
-0.00333341
0.0702444
0.0700195
0.0695823
0.0688788
0.0678507
0.0664145
0.0645187
0.0621041
0.0591521
0.055641
0.0515959
0.0470364
0.0420305
0.0366295
0.0309322
0.0250002
0.0189473
0.0128183
0.00672969
0.00066944
-0.00526446
0.0673122
0.0670108
0.0664347
0.0655475
0.0643061
0.0626442
0.0605256
0.0579087
0.0547894
0.0511616
0.0470601
0.0425146
0.0375953
0.032356
0.0268897
0.021254
0.0155507
0.00981733
0.00415552
-0.00145356
-0.00692703
0.0643239
0.0639532
0.0632515
0.0622002
0.0607711
0.0589155
0.0566113