/*--------------------------------*- C++ -*----------------------------------*\
  =========                 |
  \\      /  F ield         | OpenFOAM: The Open Source CFD Toolbox
   \\    /   O peration     | Website:  https://openfoam.org
    \\  /    A nd           | Version:  7
     \\/     M anipulation  |
\*---------------------------------------------------------------------------*/
FoamFile
{
    version     2.0;
    format      ascii;
    class       surfaceScalarField;
    location    "5";
    object      phi;
}
// * * * * * * * * * * * * * * * * * * * * * * * * * * * * * * * * * * * * * //

dimensions      [0 3 -1 0 0 0 0];

internalField   nonuniform List<scalar> 
12578
(
-2.91045e-05
2.91427e-05
-3.81674e-08
-9.77505e-05
6.8734e-05
-8.79889e-08
-0.000197798
0.00010017
-1.23277e-07
-0.000324026
0.000126377
-1.49218e-07
-0.000473878
0.000150022
-1.70602e-07
-0.000647078
0.00017339
-1.90246e-07
-0.00084494
0.000198071
-2.08056e-07
-0.00106961
0.000224891
-2.21285e-07
-0.00132316
0.000253779
-2.25229e-07
0.000285646
-2.13679e-07
-0.0016086
-2.78275e-05
5.69701e-05
-9.38957e-05
0.000134802
-0.000190522
0.000196797
-0.000312592
0.000248447
-0.000457378
0.000294809
-0.000624225
0.000340237
-0.000813909
0.000387755
-0.00102793
0.000438912
-0.00126759
0.000493442
0.000552617
-0.00153457
-2.53679e-05
8.2338e-05
-8.64344e-05
0.000195869
-0.000176391
0.000286753
-0.000290339
0.000362396
-0.000425244
0.000429713
-0.00057974
0.000494734
-0.000753588
0.000561603
-0.000947079
0.000632403
-0.00116013
0.000706493
0.000784325
-0.00139184
-2.19047e-05
0.000104243
-7.58405e-05
0.000249805
-0.000156212
0.000367125
-0.000258451
0.000464635
-0.000379132
0.000550394
-0.000515942
0.000631544
-0.000667268
0.000712928
-0.00083175
0.000796886
-0.00100758
0.000882325
0.000966992
-0.00119025
-1.76857e-05
0.000121928
-6.27821e-05
0.000294901
-0.000131136
0.000435478
-0.000218616
0.000552115
-0.000321396
0.000653174
-0.000436097
0.000746245
-0.000559524
0.000836355
-0.000688379
0.000925742
-0.000819146
0.00101309
0.00109077
-0.00094292
-1.30061e-05
0.000134935
-4.80732e-05
0.000329968
-0.000102582
0.000489987
-0.000172933
0.000622466
-0.000254953
0.000735194
-0.000344201
0.000835493
-0.000435866
0.00092802
-0.000524571
0.00101445
-0.000605416
0.00109394
0.00115012
-0.000664771
-8.1831e-06
0.000143118
-3.26148e-05
0.0003544
-7.21575e-05
0.00052953
-0.000123796
0.000674104
-0.000183121
0.000794519
-0.000244747
0.00089712
-0.000302389
0.000985661
-0.000348538
0.00106059
-0.000377391
0.00112279
0.00114413
-0.0003714
-3.52984e-06
0.000146647
-1.73286e-05
0.000368198
-4.15508e-05
0.000553752
-7.37628e-05
0.000706316
-0.000109451
0.000830207
-0.000142497
0.000930167
-0.000165461
0.00100862
-0.000168726
0.00106386
-0.000144852
0.00109892
0.00107998
-8.07031e-05
6.92814e-07
0.000145955
-3.08029e-06
0.000371972
-1.24214e-05
0.000563093
-2.53997e-05
0.000719295
-3.7532e-05
0.000842339
-4.22254e-05
0.00093486
-3.13229e-05
0.000997722
4.26665e-06
0.00102827
8.09694e-05
0.00102221
0.00095664
0.00020431
4.20554e-06
0.000141749
9.32505e-06
0.000366852
1.37096e-05
0.000558708
1.88817e-05
0.000714123
2.92229e-05
0.000831998
5.15343e-05
0.000912549
9.45527e-05
0.000954704
0.000169481
0.000953341
0.000286256
0.00090544
0.000775248
0.000467648
6.88376e-06
0.000134865
1.93377e-05
0.000354398
3.55923e-05
0.000542454
5.70028e-05
0.000692712
8.78034e-05
0.000801197
0.000134785
0.000865567
0.000206783
0.000882706
0.000314922
0.000845203
0.000469873
0.000750488
0.000543553
0.000701568
8.62196e-06
0.000126243
2.65478e-05
0.000336472
5.23389e-05
0.000516663
8.74093e-05
0.000657642
0.000135887
0.00075272
0.000204422
0.000797031
0.000301715
0.000785413
0.000438581
0.000708337
0.000626377
0.000562692
0.000265855
0.000904075
9.40358e-06
0.00011684
3.08123e-05
0.000315064
6.35203e-05
0.000483955
0.000109255
0.000611907
0.000172155
0.00068982
0.000258754
0.000710433
0.000377663
0.000666504
0.00053928
0.000546719
0.000756705
0.000345268
-5.6008e-05
0.00107857
9.288e-06
0.000107552
3.22434e-05
0.000292108
6.92315e-05
0.000446967
0.000122557
0.000558582
0.000196584
0.000615792
0.000297947
0.00060907
0.00043557
0.000528881
0.000619775
0.000362514
0.000868097
9.69454e-05
-0.000423149
0.00123524
8.40572e-06
3.1209e-05
0.000269305
7.01186e-05
0.000408057
0.000128293
0.000500408
0.000210654
0.000533431
0.000324403
0.000495321
0.000479568
0.000373715
0.000687317
0.000154765
0.000973798
-0.000189536
-0.00083826
0.00138891
2.8312e-05
0.000247944
6.73554e-05
0.000369014
0.000128401
0.000439362
0.000217397
0.000444435
0.00034284
0.000369878
0.000516952
0.000199603
0.000753231
-8.15146e-05
0.00108995
-0.000526257
-0.00130222
0.00155391
2.43457e-05
0.000228766
6.25561e-05
0.000330804
0.000125637
0.000376282
0.000221174
0.000348897
0.000359881
0.000231171
0.000557298
2.18627e-06
0.000831096
-0.000355313
0.00123039
-0.00092555
-0.00180932
0.00173749
2.02211e-05
5.76138e-05
0.000293411
0.000123276
0.00031062
0.00022714
0.000245033
0.000383053
7.52582e-05
0.000610723
-0.000225483
0.000933535
-0.000678124
0.00140123
-0.00139325
-0.0023441
0.00193601
5.44723e-05
0.000255808
0.000124671
0.000240421
0.000240431
0.000129274
0.00041947
-0.000103781
0.000685428
-0.000491441
0.00106794
-0.00106063
0.00159842
-0.00192373
-0.00288551
0.00213983
5.48668e-05
0.000132747
0.000162541
0.000265272
-3.25133e-06
0.000474207
-0.000312717
0.000785714
-0.000802948
0.00123203
-0.00150695
0.00180886
-0.00250056
-0.00343995
0.0023633
0.000149579
0.000304288
-0.00015796
0.000549432
-0.000557862
0.000911083
-0.0011646
0.00141431
-0.00201017
0.00201554
-0.00310179
-0.00419366
0.00276924
0.000358217
-0.00034001
0.000644139
-0.000843784
0.00105624
-0.0015767
0.00160112
-0.00255505
0.00222299
-0.00372365
-0.00490656
0.00293589
0.000426026
0.000754566
-0.00117232
0.00121182
-0.00203395
0.00178128
-0.00312451
0.00239989
-0.00434227
-0.00554588
0.00303921
0.000875011
0.00136679
-0.00252573
0.00194208
-0.0036998
0.00253104
-0.00493124
-0.00611036
0.00309553
0.00151055
0.00207224
-0.00426149
0.00261501
-0.00547401
-0.00659831
0.00310296
0.0021658
0.00265247
-0.00596068
-0.00701362
0.00306778
0.00264816
-0.00736385
0.00299839
0.00290191
0.00260881
0.00638878
0.00736482
0.00290232
0.00264863
0.0059617
0.00701462
0.00299883
0.00216626
0.00426238
0.00265296
0.005475
0.00659932
0.00306826
0.00151088
0.00252627
0.00207268
0.00370058
0.00261551
0.00493217
0.00611137
0.00310346
0.000875183
0.00117253
0.00136708
0.00203438
0.00194248
0.00312518
0.00253154
0.00434312
0.00554685
0.00309606
0.000426082
0.000340033
0.000754694
0.000843922
0.00121205
0.00157702
0.00178164
0.00255559
0.00240036
0.0037244
0.00490747
0.00303974
0.000358247
0.000157956
0.000644224
0.000557945
0.00105642
0.00116482
0.00160142
0.00201059
0.0022234
0.00310241
0.00419446
0.00293641
0.000149571
-0.000162593
0.000304295
3.23203e-06
0.000549479
0.000312762
0.000911202
0.000803098
0.00141454
0.00150725
0.00201588
0.00250107
0.00344063
0.00276971
5.48522e-05
-0.000255863
0.000132729
-0.00024047
0.00026526
-0.000129299
0.000474219
0.000103802
0.000785778
0.000491539
0.00123218
0.00106085
0.00180913
0.00192412
0.0028861
0.00236367
5.44535e-05
-0.000293457
0.000124644
-0.00031066
0.000240402
-0.000245057
0.000419452
-7.52486e-05
0.000685444
0.000225547
0.00106802
0.000678268
0.00159862
0.00139353
0.00234459
0.00214013
2.02098e-05
-0.000228797
5.75911e-05
-0.000330838
0.000123241
-0.000376311
0.000227097
-0.000348912
0.00038301
-0.000231162
0.000610697
-2.14067e-06
0.000933554
0.000355412
0.00140134
0.000925741
0.00180971
0.00193622
2.43328e-05
-0.000247965
6.25297e-05
-0.000369035
0.000125595
-0.000439375
0.000221118
-0.000444435
0.000359817
-0.000369861
0.000557238
-0.000199562
0.00083106
8.15894e-05
0.00123041
0.000526386
0.00130251
0.00173762
6.94676e-06
-9.9154e-05
2.82974e-05
-0.000269315
6.73252e-05
-0.000408062
0.000128352
-0.000500402
0.00021733
-0.000533413
0.000342757
-0.000495288
0.000516862
-0.000373667
0.00075315
-0.000154698
0.00108991
0.000189628
0.000838468
0.00155395
8.4012e-06
-0.000107555
3.11927e-05
-0.000292107
7.00848e-05
-0.000446955
0.000128238
-0.000558556
0.000210577
-0.000615752
0.000324306
-0.000609017
0.000479456
-0.000528818
0.000687201
-0.000362443
0.000973697
-9.68674e-05
0.000423298
0.00138887
9.28293e-06
-0.000116838
3.22253e-05
-0.000315049
6.91943e-05
-0.000483923
0.000122496
-0.000611858
0.000196499
-0.000689754
0.000297838
-0.000710356
0.000435441
-0.00066642
0.000619633
-0.000546635
0.000867954
-0.000345188
5.61197e-05
0.00123513
9.39792e-06
-0.000126236
3.07924e-05
-0.000336444
6.34799e-05
-0.000516611
0.00010919
-0.000657568
0.000172064
-0.000752628
0.000258636
-0.000796928
0.00037752
-0.000785305
0.000539119
-0.000708233
0.000756531
-0.000562601
-0.000265764
0.00107841
8.61571e-06
-0.000134852
2.65263e-05
-0.000354354
5.22958e-05
-0.00054238
8.73405e-05
-0.000692613
0.00013579
-0.000801078
0.000204297
-0.000865435
0.000301563
-0.00088257
0.000438405
-0.000845076
0.000626182
-0.000750378
-0.000543468
0.000903887
6.87695e-06
-0.000141729
1.93149e-05
-0.000366792
3.5547e-05
-0.000558613
5.69313e-05
-0.000713997
8.77034e-05
-0.00083185
0.000134655
-0.000912387
0.000206624
-0.000954539
0.000314737
-0.000953188
0.000469663
-0.000905304
-0.000775157
0.000701351
4.19827e-06
-0.000145927
9.3012e-06
-0.000371895
1.36632e-05
-0.000562975
1.8809e-05
-0.000719143
2.91215e-05
-0.000842162
5.14023e-05
-0.000934668
9.43893e-05
-0.000997526
0.000169291
-0.00102809
0.000286033
-0.00102205
-0.000956531
0.000467407
6.85161e-07
-0.000146612
-3.10467e-06
-0.000368105
-1.2468e-05
-0.000553611
-2.54722e-05
-0.000706139
-3.76327e-05
-0.000830002
-4.23568e-05
-0.000929944
-3.14888e-05
-0.00100839
4.04819e-06
-0.00106363
8.0743e-05
-0.00109874
-0.00107983
0.000204047
-3.5375e-06
-0.000143075
-1.73527e-05
-0.00035429
-4.15964e-05
-0.000529367
-7.38331e-05
-0.000673902
-0.000109548
-0.000794287
-0.000142625
-0.000896867
-0.000165622
-0.000985397
-0.000168918
-0.00106033
-0.000145092
-0.00112257
-0.00114396
-8.09674e-05
-8.1906e-06
-0.000134884
-3.26379e-05
-0.000329843
-7.22008e-05
-0.000489805
-0.000123862
-0.00062224
-0.000183213
-0.000734936
-0.000244868
-0.000835211
-0.000302542
-0.000927723
-0.000348726
-0.00101415
-0.000377625
-0.00109367
-0.00114991
-0.000371677
-1.30132e-05
-0.000121871
-4.80945e-05
-0.000294762
-0.000102622
-0.000435277
-0.000172993
-0.000551869
-0.000255037
-0.000652893
-0.000344311
-0.000745936
-0.000436008
-0.000836026
-0.000524749
-0.000925407
-0.000605639
-0.00101278
-0.0010905
-0.000665043
-1.7692e-05
-0.000104179
-6.28009e-05
-0.000249653
-0.00013117
-0.000366908
-0.000218668
-0.000464371
-0.000321469
-0.000550092
-0.000436194
-0.000631211
-0.000559649
-0.000712571
-0.000688539
-0.000796517
-0.000819349
-0.000881968
-0.00096668
-0.000943172
-2.19099e-05
-8.2269e-05
-7.5856e-05
-0.000195707
-0.000156241
-0.000286524
-0.000258494
-0.000362117
-0.000379191
-0.000429395
-0.000516022
-0.000494381
-0.000667372
-0.000561221
-0.000831885
-0.000632004
-0.00100775
-0.000706098
-0.000783967
-0.00119047
-2.53719e-05
-5.68971e-05
-8.64459e-05
-0.000134633
-0.000176412
-0.000196558
-0.000290371
-0.000248158
-0.000425288
-0.000294478
-0.000579799
-0.00033987
-0.000753666
-0.000387354
-0.000947181
-0.00043849
-0.00116026
-0.000493018
-0.000552223
-0.00139201
-2.78299e-05
-2.90672e-05
-9.39029e-05
-6.85597e-05
-0.000190535
-9.99259e-05
-0.000312611
-0.000126081
-0.000457405
-0.000149684
-0.000624262
-0.000173013
-0.000813958
-0.000197659
-0.00102799
-0.000224453
-0.00126768
-0.000253335
-0.000285227
-0.00153467
-2.91053e-05
-9.7753e-05
-0.000197802
-0.000324033
-0.000473887
-0.00064709
-0.000844957
-0.00106963
-0.00132319
-0.00160863
-0.00174955
0.000141093
-1.37999e-07
-0.00187866
0.000129215
-1.05065e-07
-0.00199522
0.000116624
-6.0826e-08
-0.00209606
0.000100842
-4.50811e-09
-0.00217831
8.21874e-05
6.29638e-08
-0.00223896
6.05031e-05
1.41755e-07
-0.00227435
3.51627e-05
2.31519e-07
-0.00227927
4.57449e-06
3.40576e-07
-0.00225088
-2.87963e-05
4.07721e-07
-0.00218398
-6.73898e-05
4.9636e-07
-0.00207313
-0.000111429
5.73976e-07
-0.00191335
-0.000160406
6.28962e-07
-0.00170122
-0.000212782
6.49232e-07
-0.00143682
-0.000265023
6.2438e-07
-0.00112476
-0.000312614
5.50063e-07
-0.000775348
-0.00034984
4.31184e-07
-0.000402333
-0.000373297
2.82185e-07
-2.04858e-05
-0.000381971
1.23663e-07
0.000356085
-0.000376545
-2.53331e-08
0.000716634
-0.000360399
-1.49746e-07
0.00105383
-0.000336957
-2.4248e-07
0.00136342
-0.000309283
-3.01624e-07
0.00164366
-0.000279911
-3.30066e-07
0.00189465
-0.000250656
-3.33529e-07
0.00211769
-0.000222719
-3.19119e-07
0.00231479
-0.000196812
-2.93875e-07
0.00248842
-0.000173368
-2.64048e-07
0.00264111
-0.000152456
-2.34251e-07
0.00277545
-0.000134123
-2.07581e-07
0.0028937
-0.00011807
-1.85175e-07
0.00299802
-0.000104147
-1.6741e-07
0.00308979
-9.1619e-05
-1.53029e-07
0.00317017
-8.02428e-05
-1.41596e-07
0.00323937
-6.90705e-05
-1.30984e-07
0.00329801
-5.85174e-05
-1.22018e-07
0.00334594
-4.78111e-05
-1.12104e-07
0.00338447
-3.84283e-05
-1.04456e-07
0.00341359
-2.90277e-05
-9.44218e-08
0.00343576
-2.20798e-05
-8.87353e-08
0.00345027
-1.44348e-05
-7.80621e-08
0.00346099
-1.06422e-05
-7.55339e-08
-3.99438e-06
-6.29195e-08
-0.00167061
0.000277133
-0.00179558
0.000254189
-0.00190816
0.000229206
-0.00200544
0.00019812
-0.00208456
0.000161305
-0.00214259
0.000118537
-0.00217609
6.86662e-05
-0.00218003
8.51089e-06
-0.00215162
-5.72115e-05
-0.00208572
-0.000133286
-0.00197694
-0.000220209
-0.00182025
-0.000317098
-0.00161201
-0.000421016
-0.00135213
-0.000524912
-0.001045
-0.000619737
-0.000700907
-0.000693935
-0.000333639
-0.000740566
4.2323e-05
-0.000757933
0.000412522
-0.000746745
0.00076677
-0.000714646
0.00109787
-0.000668056
0.0014017
-0.000613116
0.00167664
-0.000554846
0.00192281
-0.000496832
0.00214154
-0.000441445
0.00233481
-0.000390088
0.00250506
-0.000343617
0.00265478
-0.000302168
0.00278649
-0.000265836
0.00290245
-0.000234028
0.00300475
-0.000206455
0.0030948
-0.000181662
0.00317373
-0.000159172
0.00324174
-0.000137088
0.00329946
-0.000116237
0.00334671
-9.5062e-05
0.00338479
-7.65088e-05
0.00341365
-5.78848e-05
0.0034357
-4.41322e-05
0.00345022
-2.89544e-05
0.00346103
-2.14444e-05
-8.22579e-06
-0.00151843
0.000403728
-0.00163545
0.000371211
-0.00174051
0.000334261
-0.0018311
0.000288714
-0.00190442
0.000234621
-0.00195765
0.000171774
-0.00198776
9.87682e-05
-0.00199003
1.0784e-05
-0.00196181
-8.54345e-05
-0.00189809
-0.000197006
-0.00179358
-0.000324714
-0.00164313
-0.000467545
-0.00144274
-0.000621412
-0.00119184
-0.000775812
-0.000894472
-0.000917103
-0.000560713
-0.00102769
-0.000204472
-0.00109681
0.000159866
-0.00112227
0.000518141
-0.00110502
0.000860579
-0.00105708
0.00118028
-0.000987755
0.00147339
-0.000906226
0.00173845
-0.000819903
0.00197566
-0.000734049
0.00218636
-0.000652141
0.00237249
-0.000576222
0.00253642
-0.000507547
0.00268056
-0.000446305
0.00280736
-0.000392634
0.00291899
-0.00034566
0.00301751
-0.000304977
0.00310428
-0.000268432
0.00318045
-0.000235337
0.00324621
-0.000202852
0.00330218
-0.000172206
0.00334815
-0.000141032
0.00338537
-0.00011373
0.00341373
-8.62419e-05
0.00343557
-6.59717e-05
0.00345011
-4.34995e-05
0.00346109
-3.24228e-05
-1.28085e-05
-0.00130357
0.000517043
-0.00140935
0.000476991
-0.00150407
0.000428982
-0.00158558
0.000370229
-0.00165117
0.000300214
-0.00169814
0.000218743
-0.00172392
0.00012455
-0.00172432
1.11799e-05
-0.0016968
-0.000112951
-0.00163661
-0.000257198
-0.00153862
-0.000422702
-0.00139752
-0.000608653
-0.00120877
-0.000810162
-0.000971098
-0.00101348
-0.000688004
-0.0012002
-0.000369085
-0.00134661
-2.627e-05
-0.00143962
0.000319201
-0.00146774
0.000660838
-0.00144666
0.000987097
-0.00138334
0.00129134
-0.001292
0.00157001
-0.0011849
0.00182181
-0.00107171
0.00204704
-0.000959272
0.00224699
-0.000852092
0.00242356
-0.000752794
0.00257901
-0.000663
0.00271565
-0.00058294
0.00283581
-0.000512798
0.00294158
-0.000451428
0.00303495
-0.000398341
0.00311724
-0.000350723
0.00318961
-0.000307706
0.00325226
-0.000265509
0.00330581
-0.000225754
0.00335001
-0.000185232
0.00338605
-0.000149768
0.00341373
-0.000113921
0.0034353
-8.75386e-05
0.00344991
-5.81112e-05
0.00346117
-4.36831e-05
-1.79257e-05
-0.00104003
0.000614156
-0.0011319
0.000568863
-0.00121429
0.000511368
-0.00128515
0.000441091
-0.0013419
0.00035696
-0.00138194
0.000258786
-0.00140308
0.000145691
-0.00140178
9.87749e-06
-0.00137566
-0.00013907
-0.00132029
-0.000312575
-0.00123077
-0.000512217
-0.00110162
-0.0007378
-0.000927786
-0.000984
-0.000706925
-0.00123434
-0.00044198
-0.00146514
-0.000141221
-0.00164737
0.000177993
-0.00175883
0.000505286
-0.00179504
0.000826981
-0.00176835
0.00113387
-0.00169023
0.00141985
-0.00157798
0.00168165
-0.00144669
0.00191811
-0.00130817
0.00212952
-0.00117068
0.00231714
-0.00103971
0.00248274
-0.000918398
0.00262846
-0.000808722
0.00275647
-0.000710947
0.00286898
-0.000625304
0.00296794
-0.000550397
0.0030553
-0.000485692
0.00313233
-0.000427761
0.00320023
-0.000375597
0.0032592
-0.000324488
0.00330988
-0.000276429
0.00335198
-0.000227335
0.00338663
-0.000184415
0.00341353
-0.000140823
0.00343482
-0.000108825
0.00344957
-7.28622e-05
0.00346123
-5.53509e-05
-2.37687e-05
-0.0007437
0.000693085
-0.000819643
0.000644806
-0.000888378
0.000580104
-0.000947721
0.000500434
-0.00099517
0.000404409
-0.00102825
0.000291871
-0.00104489
0.000162326
-0.00104233
7.32331e-06
-0.00101824
-0.000163169
-0.000968588
-0.000362222
-0.000888834
-0.000591972
-0.000773318
-0.000853316
-0.00061658
-0.00114074
-0.00041494
-0.00143598
-0.000170247
-0.00170983
0.000106144
-0.00192376
0.000401282
-0.00205397
0.00070527
-0.00209902
0.00100423
-0.00206731
0.00128948
-0.00197549
0.00155541
-0.00184391
0.00179896
-0.00169024
0.00201903
-0.00152824
0.00221584
-0.00136749
0.00239051
-0.00121438
0.00254466
-0.00107255
0.00268024
-0.000944305
0.00279926
-0.000829962
0.00290377
-0.000729813
0.00299561
-0.000642238
0.00307662
-0.000566705
0.00314809
-0.000499229
0.0032112
-0.000438712
0.00326624
-0.000379524
0.00331383
-0.000324021
0.00335369
-0.000267192
0.00338687
-0.000217592
0.00341298
-0.000166937
0.00343404
-0.000129881
0.00344904
-8.78623e-05
0.00346126
-6.75756e-05
-3.05394e-05
-0.000430741
0.000752426
-0.00048931
0.000703374
-0.000543574
0.000634368
-0.000590985
0.000547844
-0.000629107
0.000442531
-0.000655523
0.000318286
-0.000668004
0.000174807
-0.000664764
4.08304e-06
-0.000643021
-0.000184912
-0.000599418
-0.000405825
-0.000529749
-0.000661641
-0.000428293
-0.000954772
-0.000289012
-0.00128002
-0.000106303
-0.00161869
0.000111754
-0.00192789
0.000360242
-0.00217225
0.000630747
-0.00232448
0.000908928
-0.0023772
0.00118301
-0.00234139
0.00144501
-0.00223749
0.00168976
-0.00208865
0.00191439
-0.00191487
0.00211775
-0.0017316
0.00229989
-0.00154964
0.00246172
-0.00137621
0.00260461
-0.00121543
0.00273029
-0.00106999
0.00284056
-0.000940231
0.0029373
-0.000826555
0.00302221
-0.000727146
0.00309704
-0.00064153
0.00316303
-0.000565227
0.00322143
-0.000497111
0.00327256
-0.000430652
0.0033171
-0.000368558
0.00335475
-0.00030484
0.00338651
-0.000249358
0.00341192
-0.000192349
0.00343287
-0.000150825
0.00344827
-0.000103262
0.00346122
-8.05325e-05
-3.84503e-05
-0.000115278
0.000787001
-0.000156515
0.000744611
-0.000195883
0.000673736
-0.000231101
0.000583062
-0.000259971
0.0004714
-0.000279996
0.000338312
-0.000288715
0.000183525
-0.000285102
4.70819e-07
-0.000265621
-0.000204393
-0.000227553
-0.000443893
-0.000166855
-0.000722338
-7.74214e-05
-0.00104421
4.43069e-05
-0.00140175
0.000199012
-0.00177339
0.000391682
-0.00212056
0.000615406
-0.00239598
0.000858537
-0.00256761
0.00110899
-0.00262766
0.00135659
-0.00258899
0.0015942
-0.0024751
0.00181713
-0.00231158
0.00202263
-0.00212037
0.0022094
-0.00191838
0.00237724
-0.00171748
0.00252674
-0.00152571
0.00265898
-0.00134767
0.00277541
-0.00118641
0.00287759
-0.00104241
0.00296719
-0.000916158
0.00304574
-0.0008057
0.00311489
-0.000710678
0.00317585
-0.000626191
0.0032299
-0.000551154
0.00327741
-0.000478164
0.00331913
-0.000410278
0.00335477
-0.000340482
0.0033853
-0.000279893
0.00341019
-0.000217234
0.0034312
-0.000171833
0.00344719
-0.00011925
0.00346108
-9.44233e-05
-4.77259e-05
0.000186811
0.0008045
0.000164639
0.000766783
0.000140728
0.000697648
0.000117746
0.000606044
9.81208e-05
0.000491026
8.4454e-05
0.000351979
7.92766e-05
0.000188702
8.32944e-05
-3.54694e-06
0.000100404
-0.000221503
0.000132618
-0.000476108
0.0001834
-0.00077312
0.000257567
-0.00111837
0.000360839
-0.00150502
0.000497967
-0.00191052
0.000667773
-0.00229037
0.000864694
-0.0025929
0.00107899
-0.0027819
0.00130041
-0.00284909
0.00152047
-0.00280904
0.00173303
-0.00268766
0.0019339
-0.00251246
0.00212038
-0.00230684
0.00229096
-0.00208895
0.00244508
-0.0018716
0.00258298
-0.00166361
0.00270537
-0.00147007
0.0028134
-0.00129444
0.00290835
-0.00113735
0.00299166
-0.000999468
0.00306467
-0.000878708
0.00312889
-0.000774897
0.00318548
-0.000682788
0.00323575
-0.000601418
0.00328013
-0.000522549
0.00331944
-0.00044959
0.00335342
-0.000374458
0.00338302
-0.000309488
0.00340763
-0.000241847
0.00342894
-0.00019314
0.00344574
-0.000136055
0.00346079
-0.000109475
-5.86012e-05
0.000468196
0.000803952
0.000464038
0.000770941
0.000455589
0.000706097
0.000445117
0.000616516
0.000434734
0.000501409
0.000427001
0.000359711
0.000424637
0.000191067
0.000428947
-7.85785e-06
0.000443881
-0.000236437
0.000471498
-0.000503724
0.000515158
-0.000816781
0.000579073
-0.00118229
0.000668431
-0.00159438
0.000786878
-0.00202897
0.000933539
-0.00243703
0.0011032
-0.00276256
0.00128791
-0.00296661
0.0014796
-0.00304078
0.00167163
-0.00300107
0.001859
-0.00287504
0.00203797
-0.00269143
0.00220583
-0.0024747
0.0023608
-0.00224392
0.00250193
-0.00201273
0.00262904
-0.00179072
0.00274247
-0.0015835
0.00284301
-0.00139499
0.00293166
-0.001226
0.0030096
-0.00107742
0.00307798
-0.00094708
0.00313813
-0.000835054
0.00319116
-0.000735816
0.00323836
-0.000648617
0.00328024
-0.000564425
0.00331767
-0.000487019
0.00335042
-0.00040721
0.00337945
-0.000338515
0.0034041
-0.000266506
0.00342599
-0.000215028
0.00344387
-0.000153933
0.00346033
-0.000125936
-7.13209e-05
0.000721486
0.000784035
0.000734141
0.000758285
0.000740843
0.000699396
0.000743087
0.000614271
0.000742603
0.000501893
0.000741875
0.000360439
0.000743547
0.000189396
0.000749516
-1.38275e-05
0.000763531
-0.000250452
0.000788084
-0.000528277
0.000826407
-0.000855103
0.0008821
-0.00123798
0.000959394
-0.00167167
0.00106066
-0.00213023
0.00118477
-0.00256114
0.00132722
-0.00290501
0.00148215
-0.00312154
0.00164398
-0.00320261
0.0018081
-0.00316519
0.00197064
-0.00303758
0.00212828
-0.00284906
0.0022782
-0.00262463
0.00241832
-0.00238403
0.00254726
-0.00214167
0.00266442
-0.00190788
0.00276976
-0.00168883
0.00286371
-0.00148894
0.00294697
-0.00130926
0.00302048
-0.00115092
0.00308513
-0.00101173
0.00314211
-0.000892038
0.00319241
-0.000786119
0.00323732
-0.000693523
0.00327737
-0.000604478
0.00331351
-0.00052316
0.00334555
-0.000439244
0.00337444
-0.000367403
0.00339951
-0.000291575
0.00342229
-0.000237813
0.00344153
-0.000173168
0.00345966
-0.000144073
-8.6138e-05
0.000942464
0.000745647
0.000971179
0.000729571
0.000992618
0.000677956
0.00100759
0.000599303
0.00101743
0.000492048
0.00102447
0.0003534
0.00103133
0.000182541
0.0010406
-2.31028e-05
0.00105552
-0.000265374
0.00107897
-0.000551722
0.00111407
-0.000890207
0.00116377
-0.00128767
0.00123088
-0.00173878
0.0013163
-0.00221565
0.00141846
-0.0026633
0.00153395
-0.0030205
0.00165932
-0.00324691
0.00179174
-0.00333502
0.00192863
-0.00330208
0.0020672
-0.00317615
0.00220442
-0.00298628
0.00233734
-0.00275755
0.00246351
-0.0025102
0.00258115
-0.00225931
0.00268923
-0.00201595
0.00278732
-0.00178693
0.00287554
-0.00157715
0.00295426
-0.00138798
0.00302418
-0.00122084
0.00308597
-0.00107352
0.00314063
-0.000946703
0.00318903
-0.000834518
0.00323242
-0.000736906
0.00327135
-0.000643407
0.00330682
-0.000558633
0.00333867
-0.000471096
0.00336788
-0.00039661
0.00339375
-0.000317446
0.00341777
-0.000261836
0.00343866
-0.000194061
0.00345876
-0.000164167
-0.000103311
0.00113302
0.000691191
0.0011762
0.000686391
0.00121131
0.000642849
0.00123852
0.000572095
0.00125888
0.000471686
0.00127446
0.000337821
0.00128771
0.000169288
0.00130179
-3.71818e-05
0.00131949
-0.000283073
0.00134403
-0.000576268
0.00137806
-0.000924236
0.00142352
-0.00133313
0.00148171
-0.00179697
0.00155199
-0.00228593
0.00163247
-0.00274378
0.00172127
-0.0031093
0.00181768
-0.00334333
0.00192165
-0.00343899
0.00203253
-0.00341295
0.00214841
-0.00329203
0.00226644
-0.00310432
0.0023835
-0.00287461
0.00249675
-0.00262346
0.00260402
-0.00236658
0.00270388
-0.00211582
0.00279557
-0.00187861
0.00287884
-0.00166042
0.0029538
-0.00146294
0.00302092
-0.00128796
0.00308063
-0.00113323
0.00313375
-0.00099983
0.00318102
-0.000881782
0.00322361
-0.000779499
0.00326209
-0.00068189
0.00329751
-0.000594046
0.00332971
-0.000503303
0.0033597
-0.000426602
0.00338678
-0.00034452
0.00341239
-0.000287448
0.00343525
-0.000216918
0.00345759
-0.000186506
-0.000123101
0.00130071
0.000625721
0.0013552
0.0006319
0.00140177
0.00059628
0.00143989
0.000533972
0.00147037
0.000441204
0.00149491
0.000313288
0.00151561
0.000148588
0.00153581
-5.73877e-05
0.00155791
-0.000305173
0.00158512
-0.000603478
0.00161957
-0.000958687
0.001662
-0.00137555
0.0017116
-0.00184658
0.00176656
-0.00234088
0.00182518
-0.00280241
0.0018876
-0.00317173
0.00195604
-0.00341177
0.00203305
-0.003516
0.00211957
-0.00349948
0.00221439
-0.00338685
0.00231471
-0.00320464
0.00241716
-0.00297706
0.0025186
-0.00272489
0.00261648
-0.00246446
0.00270901
-0.00220835
0.00279508
-0.00196468
0.00287415
-0.0017395
0.00294608
-0.00153487
0.00301109
-0.00135296
0.00306941
-0.00119156
0.0031217
-0.00105212
0.00316852
-0.000928601
0.00321099
-0.00082197
0.00324965
-0.000720555
0.00328558
-0.000629976
0.00331866
-0.000536379
0.00334989
-0.000457835
0.00337857
-0.000373196
0.00340612
-0.000315001
0.00343125
-0.000242052
0.00345613
-0.000211381
-0.000145771
0.00145748
0.000557148
0.00151822
0.000571167
0.00157268
0.000541813
0.00161938
0.000487271
0.0016588
0.000401788
0.00169204
0.000280045
0.00172065
0.000119979
0.00174774
-8.44723e-05
0.00177522
-0.000332654
0.00180581
-0.000634069
0.00184087
-0.000993753
0.00187988
-0.00141456
0.00192034
-0.00188704
0.00195904
-0.00237957
0.00199534
-0.00283871
0.00203192
-0.0032083
0.00207383
-0.00345368
0.00212583
-0.00356799
0.00219005
-0.0035637
0.00226567
-0.00346247
0.00234987
-0.00328884
0.00243906
-0.00306626
0.00252982
-0.00281565
0.00261927
-0.00255391
0.00270532
-0.0022944
0.00278653
-0.0020459
0.00286212
-0.00181509
0.00293166
-0.00160442
0.00299519
-0.00141649
0.00305275
-0.00124911
0.0031048
-0.00110418
0.00315179
-0.000975583
0.00319473
-0.000864915
0.00323415
-0.00075997
0.00327112
-0.00066695
0.00330555
-0.000570804
0.00333845
-0.000490739
0.00336911
-0.000403855
0.00339895
-0.000344839
0.00342666
-0.000269768
0.00345437
-0.000239083
-0.000171582
0.00161617
0.000494889
0.00167699
0.000510349
0.00173502
0.000483786
0.00178729
0.000434994
0.00183374
0.000355341
0.0018746
0.000239189
0.00191055
8.40209e-05
0.00194417
-0.000118092
0.00197674
-0.000365216
0.00201
-0.000667336
0.00204433
-0.00102808
0.00207792
-0.00144816
0.00210711
-0.00191623
0.00212839
-0.00240086
0.00214207
-0.00285238
0.00215377
-0.00322
0.00217114
-0.00347105
0.0022005
-0.00359735
0.0022447
-0.00360791
0.00230308
-0.00352085
0.00237277
-0.00335852
0.00245002
-0.00314351
0.00253119
-0.00289681
0.00261315
-0.00263587
0.00269354
-0.00237479
0.00277064
-0.002123
0.00284339
-0.00188784
0.00291115
-0.00167218
0.00297376
-0.00147909
0.00303109
-0.00130645
0.00308345
-0.00115654
0.00313113
-0.00102326
0.00317507
-0.000908855
0.00321574
-0.000800637
0.00325423
-0.000705441
0.00329044
-0.000607017
0.00332542
-0.000525714
0.00335842
-0.000436859
0.00339088
-0.000377292
0.00342147
-0.000300363
0.00345228
-0.000269896
-0.00020079
0.00178599
0.000446391
0.00184219
0.000454147
0.00190023
0.000425745
0.00195523
0.000379998
0.00200629
0.000304283
0.00205277
0.000192709
0.00209397
4.28141e-05
0.00213209
-0.000156204
0.00216745
-0.000400579
0.0022007
-0.000700581
0.00223105
-0.00105843
0.0022557
-0.00147281
0.00227049
-0.00193102
0.00227259
-0.00240296
0.00226395
-0.00284375
0.00225238
-0.00320843
0.00224765
-0.00346631
0.00225702
-0.00360673
0.00228364
-0.00363452
0.00232685
-0.00356406
0.00238372
-0.0034154
0.00245044
-0.00321023
0.00252319
-0.00296957
0.00259867
-0.00271134
0.00267425
-0.00245037
0.00274797
-0.00219672
0.00281854
-0.00195841
0.0028851
-0.00173874
0.00294731
-0.0015413
0.0030049
-0.00136404
0.00305805
-0.00120968
0.00310688
-0.0010721
0.00315227
-0.000954245
0.00319463
-0.000842997
0.00323506
-0.000745869
0.00327345
-0.000645409
0.00331086
-0.000563123
0.00334654
-0.000472542
0.00338192
-0.000412668
0.00341568
-0.000334119
0.00344988
-0.000304095
-0.000233644
0.00197057
0.000411832
0.00202295
0.000401765
0.00208018
0.000368518
0.00213567
0.000324511
0.00218805
0.000251897
0.00223624
0.00014452
0.00227897
8.49583e-08
0.00231763
-0.000194863
0.00235105
-0.000433999
0.0023792
-0.000728732
0.00240036
-0.00107959
0.00241118
-0.00148363
0.0024078
-0.00192764
0.00238883
-0.00238399
0.00235829
-0.0028132
0.00232557
-0.00317571
0.00230161
-0.00344235
0.00229395
-0.00359907
0.00230567
-0.00364624
0.00233605
-0.00359445
0.00238213
-0.00346147
0.00244001
-0.00326811
0.00250578
-0.00303534
0.00257596
-0.00278152
0.00264774
-0.00252215
0.00271892
-0.0022679
0.00278801
-0.0020275
0.00285398
-0.0018047
0.0029163
-0.00160363
0.00297462
-0.00142235
0.00302896
-0.00126403
0.00307936
-0.0011225
0.0031266
-0.00100148
0.00317104
-0.000887434
0.00321377
-0.000788598
0.00325468
-0.000686326
0.00329485
-0.00060329
0.00333352
-0.000511207
0.0033721
-0.000451254
0.00340929
-0.000371305
0.00344714
-0.000341944
-0.000270384
0.00217305
0.00037861
0.00223091
0.000343904
0.00228852
0.000310915
0.00234167
0.000271355
0.00239039
0.000203183
0.00243306
0.000101849
0.00247129
-3.8149e-05
0.00250348
-0.000227056
0.00252825
-0.000458764
0.00254472