/*--------------------------------*- C++ -*----------------------------------*\
  =========                 |
  \\      /  F ield         | OpenFOAM: The Open Source CFD Toolbox
   \\    /   O peration     | Website:  https://openfoam.org
    \\  /    A nd           | Version:  7
     \\/     M anipulation  |
\*---------------------------------------------------------------------------*/
FoamFile
{
    version     2.0;
    format      ascii;
    class       volVectorField;
    location    "5";
    object      U;
}
// * * * * * * * * * * * * * * * * * * * * * * * * * * * * * * * * * * * * * //

dimensions      [0 1 -1 0 0 0 0];

internalField   nonuniform List<vector> 
6386
(
(-0.00082035 0.000649247 2.2586e-21)
(-0.00415194 0.00141765 8.79581e-21)
(-0.010063 0.00180449 -3.45182e-21)
(-0.0167272 0.00191344 2.55257e-21)
(-0.0233691 0.0018207 -1.94793e-20)
(-0.0294291 0.00159456 -8.68642e-21)
(-0.0345249 0.00129687 -1.92117e-21)
(-0.0384992 0.000984184 -2.88219e-20)
(-0.0413809 0.000700819 3.83621e-21)
(-0.0432011 0.00048648 1.82675e-20)
(-0.000909312 0.00193387 -2.06711e-20)
(-0.00429637 0.00422001 -4.6991e-21)
(-0.010132 0.00536823 1.47977e-20)
(-0.0166247 0.0056869 -5.81896e-20)
(-0.0230125 0.00540351 -7.56792e-21)
(-0.0287459 0.00472208 1.16144e-20)
(-0.0334507 0.00382785 4.35342e-21)
(-0.0369785 0.00289057 8.00238e-20)
(-0.0393663 0.00204422 -5.89325e-20)
(-0.0405859 0.00141163 9.74257e-21)
(-0.00108335 0.00317334 3.98182e-20)
(-0.00457622 0.00691524 -6.02339e-21)
(-0.0102583 0.00878595 2.54727e-20)
(-0.0164066 0.00929068 5.96963e-20)
(-0.0222859 0.00880435 1.27445e-19)
(-0.0273669 0.00766378 -9.57247e-20)
(-0.0312907 0.0061757 3.38514e-22)
(-0.0339276 0.00462245 -7.77103e-20)
(-0.0353313 0.00322956 1.01092e-19)
(-0.0353517 0.00221356 -9.68986e-20)
(-0.00133475 0.00433891 4.61444e-21)
(-0.00497349 0.00943494 -3.62816e-21)
(-0.010418 0.0119643 2.86269e-20)
(-0.0160462 0.0126162 -4.3099e-20)
(-0.0211619 0.0119069 -3.3946e-20)
(-0.0252657 0.0103011 1.68427e-19)
(-0.0280217 0.00822373 -5.35842e-20)
(-0.0293274 0.0060686 -1.57279e-19)
(-0.0292644 0.00415559 -5.28529e-20)
(-0.0274894 0.002814 7.17621e-20)
(-0.00165219 0.00540389 7.76224e-21)
(-0.00546158 0.0117151 3.56047e-20)
(-0.0105758 0.0148155 -7.97861e-20)
(-0.0155036 0.0155618 9.81504e-20)
(-0.0195992 0.0146024 6.71961e-20)
(-0.0224027 0.0125234 -2.6027e-19)
(-0.0236079 0.00986337 2.27626e-19)
(-0.023148 0.00712561 1.40129e-19)
(-0.0211475 0.00472924 4.904e-20)
(-0.0169836 0.00315328 -1.57784e-20)
(-0.00202109 0.00634417 -5.63034e-20)
(-0.00600583 0.0136974 -2.75934e-20)
(-0.0106853 0.01726 2.50311e-20)
(-0.0147256 0.0180347 -2.17858e-19)
(-0.0175424 0.0167923 1.10441e-19)
(-0.0187239 0.0142311 -2.93758e-20)
(-0.0180002 0.0109976 1.74783e-21)
(-0.0153469 0.00770114 2.67522e-20)
(-0.0109483 0.00486726 -6.16461e-20)
(-0.00383456 0.00321589 -3.45621e-20)
(-0.00242392 0.00713879 1.2488e-19)
(-0.00656412 0.0153307 -1.55437e-20)
(-0.0106894 0.0192273 9.96151e-20)
(-0.0136463 0.0199538 3.51266e-20)
(-0.0149222 0.0183911 -3.13806e-20)
(-0.014161 0.0153392 -2.64105e-20)
(-0.0111357 0.0115446 -1.8775e-20)
(-0.00586921 0.0077192 -5.33525e-20)
(0.00139838 0.00449152 2.86673e-20)
(0.0119235 0.00290931 2.27931e-19)
(-0.00284063 0.00777024 -1.33434e-19)
(-0.00708751 0.0165718 9.52581e-20)
(-0.0105207 0.0206584 -1.83544e-19)
(-0.0121873 0.0212517 2.22766e-20)
(-0.0116548 0.0193289 5.67572e-20)
(-0.00863036 0.0157796 2.13706e-19)
(-0.0029353 0.0114409 -1.02346e-19)
(0.00534898 0.0071199 1.75216e-19)
(0.0159344 0.0035531 -1.21311e-19)
(0.0304152 0.00216321 -1.56691e-19)
(-0.00324899 0.00822466 1.11801e-19)
(-0.00752096 0.0173861 -5.85185e-20)
(-0.0101025 0.0215062 -1.52574e-19)
(-0.010258 0.0218757 1.43927e-20)
(-0.00764238 0.0195534 -2.8219e-19)
(-0.00203311 0.0155045 -1.71206e-20)
(0.00669502 0.010645 1.27382e-20)
(0.0183963 0.00586836 -8.78459e-20)
(0.0327206 0.00203268 2.09076e-19)
(0.0516852 0.000989484 8.36593e-20)
(-0.00362497 0.00849184 -8.80139e-20)
(-0.00780403 0.0177478 -1.49338e-19)
(-0.00934946 0.0217367 3.93832e-19)
(-0.00775621 0.0217899 1.50466e-19)
(-0.00277345 0.0190319 5.02943e-20)
(0.00574499 0.0144892 1.13966e-19)
(0.0178658 0.00914174 -1.3118e-19)
(0.0333746 0.00395837 2.14628e-20)
(0.0518437 -8.16436e-05 -3.41686e-19)
(0.0757927 -0.000590477 3.21993e-20)
(-0.00394304 0.00856514 2.38408e-20)
(-0.00787164 0.0176406 7.22286e-20)
(-0.00816828 0.0213297 -5.20182e-19)
(-0.00456927 0.0209756 -7.53343e-20)
(0.00307656 0.0177529 7.7333e-20)
(0.0148332 0.0127332 -3.72118e-19)
(0.0307035 0.00694461 -1.25376e-20)
(0.0504006 0.0014143 -8.82254e-21)
(0.0734037 -0.00276633 -1.27817e-19)
(0.102804 -0.00253784 1.8584e-20)
(-0.00417635 0.00844116 -2.54138e-20)
(-0.0076547 0.0170568 1.32807e-19)
(-0.00645913 0.0202783 3.46859e-19)
(-0.000575152 0.0194316 -1.7527e-19)
(0.010044 0.0157263 1.35152e-20)
(0.0253745 0.0102625 -1.44723e-19)
(0.0453498 0.00409821 -3.72325e-20)
(0.0696059 -0.00170339 3.53815e-19)
(0.0975183 -0.00595738 2.90257e-19)
(0.132831 -0.00477712 -3.6856e-20)
(-0.0042969 0.0081198 2.53575e-20)
(-0.00708083 0.0159978 5.80008e-20)
(-0.00411666 0.0185893 -3.14593e-19)
(0.00435564 0.0171747 1.2767e-19)
(0.0182747 0.0129839 1.40067e-19)
(0.0375235 0.00712934 4.98344e-19)
(0.0619592 0.000679705 2.75665e-19)
(0.091135 -0.00529468 -1.38899e-19)
(0.124313 -0.00954929 -3.67599e-20)
(0.165965 -0.00721665 -1.85588e-19)
(-0.00427594 0.00760392 1.85849e-19)
(-0.00607532 0.0144734 -2.98281e-19)
(-0.00103176 0.0162829 4.69724e-19)
(0.0103578 0.014239 -1.69775e-19)
(0.0279213 0.0095781 -1.75638e-19)
(0.0514433 0.00341123 -5.61411e-19)
(0.0806962 -0.00320166 -3.75381e-19)
(0.115142 -0.00921744 2.11681e-19)
(0.153922 -0.0133842 3.17659e-19)
(0.202296 -0.00971069 3.27785e-19)
(-0.00408408 0.0068992 -1.65197e-19)
(-0.00456227 0.0125017 -7.72209e-20)
(0.00290634 0.0133919 1.12666e-20)
(0.017568 0.0106745 2.11516e-20)
(0.0391388 0.00558056 4.56917e-19)
(0.0673008 -0.000792014 1.74855e-20)
(0.101731 -0.00740807 3.6759e-19)
(0.141789 -0.0132888 -3.35588e-19)
(0.186488 -0.0172458 -6.57743e-19)
(0.241899 -0.0120652 -3.16001e-19)
(-0.00246585 0.0101094 4.70376e-19)
(0.00780738 0.00996181 7.65716e-21)
(0.0261209 0.00654648 -2.69345e-19)
(0.0520795 0.00107913 1.72182e-19)
(0.0852596 -0.00536327 -2.97004e-19)
(0.125232 -0.0117805 -6.31878e-20)
(0.17124 -0.0172924 1.56594e-19)
(0.222166 -0.0208588 2.01462e-19)
(0.284832 -0.0140402 1.58013e-19)
(0.000288101 0.00733121 -2.35491e-19)
(0.0137771 0.00605007 -2.23446e-19)
(0.0361439 0.00193413 -3.24088e-20)
(0.0668852 -0.00382519 1.65087e-19)
(0.105471 -0.0101748 5.6356e-19)
(0.151356 -0.0161506 4.70436e-19)
(0.203651 -0.0209928 7.12673e-20)
(0.261117 -0.0238779 5.88811e-19)
(0.331107 -0.0152998 2.62317e-19)
(0.00377013 0.00421076 4.33465e-19)
(0.0209135 0.00172614 1.11328e-19)
(0.047752 -0.00307071 4.63055e-19)
(0.0836793 -0.0090215 -1.73152e-19)
(0.128063 -0.0150968 -5.57471e-19)
(0.180235 -0.0203595 -2.87819e-19)
(0.239164 -0.0241561 -3.32195e-19)
(0.303479 -0.0258267 -7.16954e-19)
(0.380561 -0.015208 -8.19815e-20)
(0.0293032 -0.00292834 -3.06379e-19)
(0.0610409 -0.00836369 -2.0517e-19)
(0.102556 -0.0143915 -8.2473e-20)
(0.153126 -0.0200078 -2.41626e-20)
(0.211967 -0.0242894 8.91339e-20)
(0.277939 -0.0266037 1.44783e-19)
(0.349494 -0.0261091 2.52116e-19)
(0.43276 -0.0128687 -4.13914e-19)
(0.0390176 -0.00781886 1.60137e-19)
(0.0760806 -0.0138268 2.70281e-19)
(0.123569 -0.019809 -1.81124e-19)
(0.180684 -0.0248011 4.52254e-19)
(0.246577 -0.0278988 -1.59468e-19)
(0.320171 -0.0283524 -8.06129e-20)
(0.400026 -0.024622 1.21672e-20)
(0.488758 -0.00908013 1.24614e-19)
(0.0929105 -0.0193256 -2.01661e-19)
(0.146717 -0.0251323 1.67528e-19)
(0.210664 -0.0293692 -1.50349e-19)
(0.283877 -0.0312081 6.52607e-19)
(0.365617 -0.0297719 -1.74254e-19)
(0.45581 -0.022907 3.70983e-19)
(0.556404 -0.00886703 -1.94843e-19)
(0.171947 -0.0301898 -3.6366e-19)
(0.242885 -0.0335546 -4.95246e-19)
(0.323412 -0.034156 -4.99355e-19)
(0.412909 -0.0313349 6.86172e-20)
(0.511896 -0.0237523 2.65853e-19)
(0.619368 -0.0163341 -8.42522e-20)
(0.199168 -0.0347716 6.89307e-19)
(0.277126 -0.0371134 5.31596e-19)
(0.364712 -0.0364261 1.05633e-19)
(0.461111 -0.0324219 -5.49684e-21)
(0.56652 -0.0246091 -6.59872e-20)
(0.676912 -0.0212892 1.04303e-18)
(0.313171 -0.0397516 -6.13779e-19)
(0.407421 -0.0376015 2.63317e-19)
(0.509791 -0.0322645 1.22987e-19)
(0.619725 -0.0237977 -8.826e-19)
(0.731243 -0.0218173 -1.56861e-19)
(0.451262 -0.0373049 -2.72949e-19)
(0.558727 -0.0303377 3.00851e-19)
(0.671812 -0.0206942 2.0959e-20)
(0.783562 -0.0183181 -1.66995e-19)
(0.607713 -0.0263092 1.0595e-19)
(0.722864 -0.0150356 9.32837e-20)
(0.834101 -0.0111607 -8.85651e-20)
(0.772766 -0.00674133 1.51799e-19)
(0.882752 -0.000712412 4.57084e-19)
(0.929269 0.0126244 -1.77694e-19)
(0.821611 -0.00418028 -1.06269e-19)
(0.929612 -0.0126785 -7.12019e-19)
(0.77307 0.00671009 -1.09401e-19)
(0.883076 0.000671416 7.09883e-19)
(0.607957 0.0262998 -5.15754e-19)
(0.723144 0.0150145 4.27811e-19)
(0.834406 0.0111316 -1.80317e-19)
(0.451441 0.0373093 -7.6431e-20)
(0.558947 0.0303352 8.96934e-20)
(0.672069 0.0206819 -6.97292e-20)
(0.783845 0.0182995 -4.26498e-20)
(0.313291 0.0397621 -1.88605e-19)
(0.407579 0.0376095 2.80248e-19)
(0.509987 0.0322676 3.59875e-19)
(0.619958 0.0237927 -7.93736e-19)
(0.731504 0.0218072 -3.10246e-19)
(0.199239 0.0347822 -1.82237e-19)
(0.277229 0.0371251 7.11463e-19)
(0.36485 0.0364367 -8.47023e-20)
(0.461285 0.0324292 7.04045e-21)
(0.56673 0.0246098 3.22762e-19)
(0.677151 0.0212853 5.28052e-19)
(0.172006 0.0301999 -5.30579e-19)
(0.242972 0.0335667 -3.05452e-19)
(0.323531 0.0341684 -5.75567e-19)
(0.413062 0.0313453 -1.55654e-19)
(0.512083 0.0237573 3.3611e-19)
(0.619584 0.0163333 -6.70864e-20)
(0.0929384 0.0193314 7.37161e-20)
(0.146766 0.0251416 -4.88607e-20)
(0.210738 0.0293812 8.07273e-20)
(0.28398 0.0312214 7.27155e-19)
(0.36575 0.0297845 -9.07222e-20)
(0.455974 0.0229152 -1.35183e-20)
(0.556595 0.00886642 -1.77581e-19)
(0.0390263 0.0078199 2.65617e-19)
(0.0761023 0.0138313 -1.053e-19)
(0.123609 0.0198173 7.77505e-20)
(0.180746 0.0248127 4.65564e-19)
(0.246663 0.0279125 -4.54947e-19)
(0.320285 0.0283664 3.37461e-19)
(0.400168 0.0246331 -3.56838e-19)
(0.488926 0.0090807 1.42651e-19)
(0.0293089 0.00292822 -4.51143e-19)
(0.0610574 0.00836691 -2.22125e-19)
(0.102588 0.0143986 1.63259e-20)
(0.153176 0.0200186 -4.70991e-20)
(0.21204 0.0243031 2.04201e-19)
(0.278036 0.0266186 -6.93678e-20)
(0.349616 0.0261225 3.23367e-19)
(0.432907 0.0128726 -4.00586e-19)
(0.00376879 -0.00421355 -1.39254e-19)
(0.0209169 -0.0017273 4.88513e-19)
(0.0477641 0.00307272 2.1879e-19)
(0.0837041 0.00902745 7.16104e-20)
(0.128104 0.0151067 -5.98455e-19)
(0.180295 0.0203728 -4.65947e-19)
(0.239245 0.0241712 -3.20127e-19)
(0.303583 0.0258415 -6.38242e-19)
(0.380689 0.015215 -3.10256e-19)
(0.000286109 -0.00733458 -3.44912e-19)
(0.0137786 -0.00605214 -1.13222e-19)
(0.0361524 -0.00193325 5.14635e-20)
(0.0669042 0.00382995 -4.45383e-20)
(0.105504 0.0101837 7.48265e-19)
(0.151405 0.0161631 3.90915e-19)
(0.203719 0.0210078 2.06941e-19)
(0.261204 0.0238932 3.916e-19)
(0.331217 0.0153089 1.25461e-19)
(-0.00369341 -0.00601658 -6.22751e-20)
(-0.00246826 -0.0101132 4.42782e-19)
(0.00780742 -0.00996463 -2.96609e-20)
(0.0261265 -0.00654661 -1.85288e-19)
(0.0520937 -0.00107551 9.3149e-20)
(0.0852854 0.00537102 -1.20638e-19)
(0.125272 0.0117921 -3.1735e-19)
(0.171296 0.0173067 1.27605e-19)
(0.222239 0.0208741 3.96362e-19)
(0.284924 0.0140507 1.63559e-20)
(-0.0040858 -0.00690167 -7.9297e-20)
(-0.00456492 -0.0125059 -1.50562e-19)
(0.00290531 -0.0133953 -1.57139e-19)
(0.0175713 -0.0106755 9.33763e-20)
(0.0391491 -0.00557802 3.34038e-19)
(0.0673207 0.000798625 3.53683e-19)
(0.101763 0.00741857 1.2604e-19)
(0.141835 0.0133023 -4.25632e-19)
(0.186548 0.0172606 -3.64377e-19)
(0.241976 0.0120765 -3.89447e-19)
(-0.00427754 -0.0076064 2.26176e-19)
(-0.00607805 -0.0144777 -3.10241e-19)
(-0.00103352 -0.0162868 2.12509e-19)
(0.0103593 -0.0142407 1.94418e-19)
(0.0279284 -0.00957653 -4.48783e-19)
(0.0514583 -0.00340573 -4.01281e-19)
(0.0807211 0.00321103 -4.94253e-19)
(0.115179 0.00922992 1.88459e-19)
(0.15397 0.0133983 1.98791e-19)
(0.20236 0.0097222 5.52612e-19)
(-0.00429836 -0.00812224 -1.61367e-19)
(-0.00708353 -0.0160023 7.5103e-20)
(-0.00411892 -0.0185936 -2.42939e-19)
(0.00435578 -0.0171771 2.02814e-19)
(0.0182792 -0.0129832 3.12008e-20)
(0.0375344 -0.00712489 6.18069e-19)
(0.0619783 -0.00067148 2.97072e-19)
(0.0911638 0.00530604 -1.60391e-19)
(0.124352 0.0095624 -6.67406e-20)
(0.166017 0.00722809 7.01813e-21)
(-0.00417766 -0.00844355 -7.02777e-20)
(-0.0076573 -0.0170613 1.90525e-19)
(-0.00646166 -0.0202828 2.51371e-19)
(-0.000575997 -0.0194345 -2.88771e-20)
(0.0100465 -0.0157263 -2.65813e-19)
(0.0253821 -0.010259 -3.37731e-21)
(0.0453642 -0.0040911 9.08374e-20)
(0.0696283 0.00171361 1.85506e-19)
(0.0975494 0.00596946 3.54324e-19)
(0.132873 0.00478821 -1.0036e-20)
(-0.0039442 -0.00856743 -2.48864e-20)
(-0.00787407 -0.017645 1.27461e-20)
(-0.00817093 -0.0213343 -3.86813e-19)
(-0.00457079 -0.0209788 -1.56917e-19)
(0.00307762 -0.0177536 5.98358e-20)
(0.0148383 -0.0127306 -3.94216e-19)
(0.030714 -0.00693854 1.97479e-19)
(0.0504176 -0.00140521 -2.69389e-19)
(0.0734279 0.00277735 -1.2343e-19)
(0.102836 0.00254837 1.9413e-19)
(-0.00362597 -0.00849403 -6.5469e-20)
(-0.00780625 -0.0177522 -1.14939e-19)
(-0.00935209 -0.0217414 4.05376e-19)
(-0.00775816 -0.0217934 6.25583e-20)
(-0.0027735 -0.0190331 2.86484e-19)
(0.00574807 -0.0144873 -3.34734e-20)
(0.0178732 -0.00913661 -6.34819e-20)
(0.0333872 -0.00395033 -8.25149e-20)
(0.0518621 9.16695e-05 -3.2905e-19)
(0.0758178 0.000600539 -7.5072e-20)
(-0.00324985 -0.00822673 8.37492e-20)
(-0.00752294 -0.0173903 -1.27513e-19)
(-0.010105 -0.0215108 -1.95253e-20)
(-0.0102601 -0.0218794 -3.97179e-20)
(-0.00764319 -0.0195549 -2.70109e-19)
(-0.00203153 -0.0155033 -4.9916e-22)
(0.00669997 -0.0106407 -8.19335e-20)
(0.0184054 -0.00586128 4.48696e-20)
(0.0327344 -0.00202358 2.03215e-19)
(0.0517043 -0.000979951 6.02532e-20)
(-0.00284135 -0.00777218 -1.52191e-19)
(-0.00708924 -0.0165758 1.36653e-19)
(-0.010523 -0.020663 -1.7804e-19)
(-0.0121895 -0.0212554 9.12259e-21)
(-0.0116561 -0.0193308 1.13099e-20)
(-0.00862987 -0.0157789 2.57358e-19)
(-0.0029322 -0.0114373 -5.36521e-20)
(0.00535535 -0.00711368 -1.44076e-20)
(0.0159444 -0.00354485 7.39955e-20)
(0.0304295 -0.00215428 -3.43978e-19)
(-0.00242451 -0.0071406 1.61766e-19)
(-0.00656559 -0.0153346 -9.86613e-20)
(-0.0106915 -0.0192318 1.05252e-19)
(-0.0136484 -0.0199576 6.11546e-20)
(-0.0149237 -0.0183933 2.53446e-20)
(-0.0141613 -0.0153389 -6.19333e-20)
(-0.011134 -0.0115417 -8.56625e-20)
(-0.00586493 -0.00771372 -9.51451e-20)
(0.00140548 -0.00448405 1.75056e-19)
(0.0119341 -0.00290105 1.27791e-19)
(-0.00202156 -0.00634586 -4.19825e-20)
(-0.00600706 -0.0137011 2.40471e-20)
(-0.0106871 -0.0172643 1.4367e-20)
(-0.0147275 -0.0180384 -1.96677e-19)
(-0.017544 -0.0167946 4.1194e-20)
(-0.0187246 -0.0142312 4.19072e-20)
(-0.0179994 -0.0109952 -9.04186e-20)
(-0.0153441 -0.00769629 4.93637e-20)
(-0.0109434 -0.00486044 -4.00247e-20)
(-0.00382692 -0.0032081 -8.3732e-20)
(-0.00165256 -0.00540547 -3.37274e-20)
(-0.00546256 -0.0117186 1.40986e-20)
(-0.0105773 -0.0148197 -3.15521e-20)
(-0.0155053 -0.0155655 1.06938e-19)
(-0.0196007 -0.0146048 -2.40764e-20)
(-0.0224035 -0.0125237 -1.7864e-19)
(-0.0236077 -0.00986138 1.17067e-19)
(-0.0231463 -0.00712128 2.07134e-19)
(-0.0211443 -0.00472296 6.84237e-20)
(-0.0169784 -0.00314579 -2.06505e-21)
(-0.00133502 -0.0043404 -9.75851e-21)
(-0.00497424 -0.00943828 3.87605e-20)
(-0.0104191 -0.0119683 -8.07553e-20)
(-0.0160476 -0.01262 3.14837e-20)
(-0.0211632 -0.0119094 -5.46314e-20)
(-0.0252666 -0.0103017 1.44297e-19)
(-0.0280218 -0.00822206 -7.95877e-20)
(-0.0293265 -0.00606468 -7.42479e-20)
(-0.0292624 -0.00414974 -1.21279e-19)
(-0.0274861 -0.00280687 1.13861e-19)
(-0.00108354 -0.00317475 3.6929e-20)
(-0.00457676 -0.00691845 -1.98597e-20)
(-0.0102591 -0.0087899 3.64942e-20)
(-0.0164076 -0.00929436 5.19906e-20)
(-0.0222869 -0.00880688 1.21927e-19)
(-0.0273676 -0.00766451 -9.51363e-20)
(-0.0312909 -0.00617427 2.57691e-20)
(-0.0339272 -0.00461882 -8.3877e-20)
(-0.0353301 -0.00322404 8.11277e-20)
(-0.0353496 -0.00220672 -7.44936e-20)
(-0.000909423 -0.00193524 -1.21283e-20)
(-0.00429669 -0.00422313 4.63796e-21)
(-0.0101325 -0.0053721 5.66244e-21)
(-0.0166253 -0.00569054 -4.35081e-20)
(-0.0230131 -0.00540606 -2.45592e-20)
(-0.0287464 -0.0047229 2.66001e-20)
(-0.0334509 -0.00382656 4.3669e-21)
(-0.0369783 -0.00288714 8.81117e-20)
(-0.0393657 -0.00203891 -6.94048e-20)
(-0.0405848 -0.00140497 -2.28781e-20)
(-0.000820387 -0.000650586 -2.04607e-21)
(-0.00415205 -0.00142073 7.22185e-21)
(-0.0100632 -0.00180833 -4.7622e-21)
(-0.0167274 -0.00191706 3.8771e-21)
(-0.0233693 -0.00182326 -1.93349e-20)
(-0.0294292 -0.00159542 -4.85782e-21)
(-0.034525 -0.00129566 -6.5456e-21)
(-0.0384992 -0.000980849 -2.14926e-20)
(-0.0413807 -0.000695611 -1.59558e-21)
(-0.0432008 -0.000479912 2.40583e-20)
(-0.0446476 0.000471171 -1.05667e-21)
(-0.0458295 0.00026243 4.36179e-21)
(-0.0462149 -4.75949e-05 7.43038e-23)
(-0.0455505 -0.000416997 -4.29861e-21)
(-0.0436504 -0.000823715 4.92231e-21)
(-0.0403213 -0.00124848 -2.34474e-22)
(-0.0354311 -0.00167646 -8.15044e-22)
(-0.0288844 -0.00209697 -8.23241e-22)
(-0.0206119 -0.00250262 6.99943e-22)
(-0.0105649 -0.00288864 1.41832e-21)
(0.00129093 -0.00325234 -1.5204e-21)
(0.01498 -0.00359235 -3.95086e-22)
(0.03052 -0.00390813 3.85602e-22)
(0.0479233 -0.00419947 1.98891e-22)
(0.0671969 -0.00446612 -3.04721e-22)
(0.0883413 -0.00470767 -1.39707e-23)
(0.111348 -0.00492341 -9.11362e-22)
(0.136199 -0.00511233 4.141e-22)
(0.162861 -0.00527324 3.04582e-22)
(0.191285 -0.00540485 -4.72187e-22)
(0.221405 -0.00550586 5.90726e-22)
(0.253132 -0.00557514 -8.55374e-23)
(0.28636 -0.00561181 -6.62213e-22)
(0.320958 -0.0056153 3.66969e-22)
(0.356775 -0.00558538 1.20554e-22)
(0.393638 -0.00552221 -2.09163e-22)
(0.431353 -0.00542626 5.06572e-23)
(0.469707 -0.00529826 4.52455e-23)
(0.50846 -0.00513925 -1.42367e-23)
(0.54737 -0.00495022 -5.41264e-25)
(0.586132 -0.00473279 -1.43326e-23)
(0.624511 -0.00448769 -6.50409e-23)
(0.662068 -0.00421819 1.21907e-24)
(0.698718 -0.00392365 7.54638e-23)
(0.733653 -0.00361297 -1.74326e-23)
(0.767413 -0.00327948 -4.11697e-23)
(0.798061 -0.00294953 4.11749e-23)
(0.828245 -0.00259258 -5.63241e-23)
(0.852544 -0.00228551 6.03038e-23)
(0.879962 -0.00191505 1.08397e-22)
(0.894666 -0.00170567 4.72996e-24)
(0.923831 -0.00128922 1.81109e-23)
(-0.0417297 0.00137014 -3.17072e-20)
(-0.0428152 0.000738556 1.35279e-20)
(-0.0430476 -0.00019019 3.1109e-21)
(-0.042217 -0.00129368 1.14374e-20)
(-0.0401535 -0.00250815 -6.77356e-21)
(-0.0366694 -0.00377555 8.41745e-22)
(-0.0316381 -0.00505144 -6.65622e-21)
(-0.0249688 -0.00630409 -1.66897e-21)
(-0.0165951 -0.00751152 -1.32611e-21)
(-0.00647025 -0.00865975 -1.61899e-21)
(0.00543904 -0.00974085 1.28709e-20)
(0.0191572 -0.010751 -1.60005e-20)
(0.0347023 -0.0116889 3.02385e-21)
(0.0520876 -0.0125538 9.41592e-21)
(0.0713213 -0.0133453 -7.63195e-21)
(0.0924048 -0.0140624 2.76764e-22)
(0.115331 -0.014703 5.5277e-21)
(0.140083 -0.0152643 8.01582e-22)
(0.166628 -0.0157428 -3.7012e-21)
(0.19492 -0.0161348 -3.81954e-22)
(0.224892 -0.0164365 2.02571e-21)
(0.256458 -0.0166446 -3.30991e-22)
(0.289514 -0.0167564 2.5193e-22)
(0.323929 -0.0167702 2.49761e-24)
(0.359555 -0.0166851 -5.60526e-22)
(0.396222 -0.0165016 7.2723e-23)
(0.433735 -0.0162207 8.27049e-23)
(0.471886 -0.0158446 1.93036e-22)
(0.510435 -0.0153759 1.50461e-23)
(0.549143 -0.0148174 5.52735e-23)
(0.587707 -0.0141735 3.04963e-23)
(0.625895 -0.0134463 4.24395e-23)
(0.663269 -0.0126451 4.29548e-24)
(0.699746 -0.011768 -1.28801e-22)
(0.734521 -0.0108414 1.14186e-22)
(0.768133 -0.00984523 -1.86425e-23)
(0.798651 -0.00885859 6.62685e-23)
(0.828717 -0.00778981 1.27546e-22)
(0.852921 -0.00686987 -4.70288e-23)
(0.880247 -0.00575869 4.46012e-23)
(0.894896 -0.00513064 -7.92283e-24)
(0.923981 -0.00388013 -1.79932e-23)
(-0.0358975 0.00216395 2.24628e-20)
(-0.0367928 0.00109186 -4.0059e-20)
(-0.0367207 -0.0004523 2.5022e-20)
(-0.0355608 -0.00227828 5.28016e-21)
(-0.0331746 -0.00428692 3.95148e-21)
(-0.0293845 -0.00638105 -1.80527e-20)
(-0.0240752 -0.00848719 1.06372e-20)
(-0.0171648 -0.0105534 -1.4631e-20)
(-0.00859308 -0.0125438 3.4377e-20)
(0.00168306 -0.0144359 -2.25991e-20)
(0.0136953 -0.0162172 1.10175e-20)
(0.027468 -0.0178817 -2.89602e-21)
(0.0430203 -0.0194273 2.1054e-21)
(0.0603672 -0.0208532 -2.62824e-21)
(0.0795189 -0.0221587 -7.46637e-21)
(0.100479 -0.0233419 3.64624e-21)
(0.123243 -0.0243994 -4.56262e-21)
(0.147796 -0.0253266 2.40212e-21)
(0.174109 -0.0261177 -9.0429e-22)
(0.202136 -0.0267662 -5.78073e-22)
(0.231814 -0.027266 2.05952e-21)
(0.263061 -0.0276114 3.29572e-22)
(0.295774 -0.0277979 -9.44663e-23)
(0.329827 -0.0278225 -7.86868e-22)
(0.365075 -0.0276839 1.43947e-21)
(0.401351 -0.0273824 -3.21208e-22)
(0.438465 -0.0269199 -1.48048e-22)
(0.476211 -0.0262995 7.46743e-23)
(0.514356 -0.0255258 -1.63487e-22)
(0.552664 -0.0246029 5.12241e-23)
(0.590835 -0.0235383 -9.90816e-23)
(0.628643 -0.022335 2.06753e-22)
(0.665654 -0.0210087 2.53016e-24)
(0.701789 -0.0195555 -4.99966e-23)
(0.736245 -0.0180197 -2.19807e-22)
(0.769565 -0.0163675 -9.52745e-23)
(0.799824 -0.0147306 -1.51517e-22)
(0.829655 -0.0129559 -1.72523e-22)
(0.853669 -0.0114286 -2.37973e-24)
(0.880814 -0.0095818 -2.83454e-22)
(0.895354 -0.00853897 -1.92526e-23)
(0.924281 -0.00645972 -1.85993e-22)
(-0.0271571 0.00279544 1.49629e-21)
(-0.0277755 0.00124439 -1.51863e-20)
(-0.0272493 -0.000908042 2.81922e-20)
(-0.0256034 -0.00343817 -7.38097e-21)
(-0.0227429 -0.00621876 -1.4642e-20)
(-0.0185037 -0.00911338 3.18925e-20)
(-0.0127877 -0.0120205 -1.44796e-20)
(-0.00552656 -0.0148694 -2.60926e-20)
(0.00333136 -0.0176117 7.20408e-21)
(0.013824 -0.0202176 1.44836e-21)
(0.0259808 -0.0226707 -4.72707e-21)
(0.0398265 -0.0249637 1.62605e-20)
(0.0553821 -0.0270938 3.79105e-21)
(0.0726652 -0.0290602 -5.57683e-21)
(0.0916892 -0.0308618 -1.75389e-22)
(0.112461 -0.0324958 -6.27715e-21)
(0.13498 -0.0339576 1.23914e-20)
(0.159235 -0.0352402 -5.66437e-21)
(0.185199 -0.0363355 -5.59716e-21)
(0.212831 -0.0372345 3.71506e-21)
(0.242072 -0.0379281 1.90738e-21)
(0.272844 -0.0384085 -5.93767e-22)
(0.305048 -0.0386691 1.76141e-21)
(0.338564 -0.0387057 -1.71404e-21)
(0.373251 -0.0385161 -1.31368e-22)
(0.408947 -0.0381007 -3.20333e-22)
(0.44547 -0.0374619 1.23861e-21)
(0.482619 -0.0366038 -5.92891e-22)
(0.520165 -0.0355326 -2.77489e-23)
(0.55788 -0.034254 7.82498e-23)
(0.595471 -0.0327781 8.94246e-23)
(0.632717 -0.0311088 -7.56774e-23)
(0.669191 -0.0292678 8.31499e-23)
(0.704818 -0.0272495 -4.85371e-22)
(0.738803 -0.0251155 5.01174e-22)
(0.77169 -0.0228179 -1.03388e-22)
(0.801566 -0.0205413 3.40175e-22)
(0.831049 -0.0180706 2.38239e-22)
(0.854782 -0.0159451 1.65041e-22)
(0.881658 -0.013371 2.98131e-22)
(0.896035 -0.0119198 -4.825e-23)
(0.924727 -0.00902055 1.67899e-22)
(-0.015516 0.00319784 9.99752e-21)
(-0.0157838 0.00112504 3.63857e-20)
(-0.014652 -0.00162188 -1.44031e-20)
(-0.0123735 -0.00483341 -5.67417e-20)
(-0.0088986 -0.008356 6.74407e-20)
(-0.00407908 -0.0120151 -4.00279e-21)
(0.00215967 -0.0156825 -2.00069e-20)
(0.00986837 -0.0192713 1.75232e-20)
(0.0190875 -0.0227226 -2.00717e-20)
(0.029849 -0.026001 1.68395e-20)
(0.0421805 -0.0290874 -5.34815e-22)
(0.0561073 -0.0319734 -1.27875e-20)
(0.0716534 -0.0346564 -3.93976e-21)
(0.0888401 -0.0371355 5.36738e-21)
(0.107685 -0.0394091 1.4466e-20)
(0.128201 -0.0414736 -2.75562e-21)
(0.15039 -0.0433225 -1.57455e-20)
(0.174245 -0.0449467 9.9622e-21)
(0.199745 -0.0463354 -8.76456e-21)
(0.226855 -0.0474766 3.01602e-21)
(0.255519 -0.0483587 -1.65687e-21)
(0.285665 -0.0489711 2.69005e-21)
(0.3172 -0.0493053 2.68923e-21)
(0.35001 -0.0493555 1.5102e-21)
(0.383961 -0.0491187 -2.98191e-21)
(0.418899 -0.048595 -1.57401e-22)
(0.454647 -0.0477874 5.59595e-22)
(0.491014 -0.0467008 7.85394e-23)
(0.527777 -0.0453427 -5.92577e-22)
(0.564717 -0.0437201 -4.09564e-23)
(0.601549 -0.0418457 3.01198e-23)
(0.63806 -0.0397243 -1.08204e-22)
(0.673831 -0.0373832 8.98096e-23)
(0.708793 -0.0348146 4.18826e-22)
(0.742163 -0.0320975 2.40146e-22)
(0.774482 -0.0291695 -5.67027e-23)
(0.803855 -0.0262677 1.71408e-22)
(0.832882 -0.0231143 -2.06439e-22)
(0.856246 -0.0204033 3.19656e-23)
(0.882768 -0.0171132 -5.65974e-22)
(0.896933 -0.0152627 7.91264e-23)
(0.925316 -0.0115554 9.63739e-23)
(-0.000981991 0.00321072 1.05957e-20)
(-0.000824049 0.000729701 -1.10397e-19)
(0.00105251 -0.00263191 4.7303e-20)
(0.00409544 -0.00651253 -1.95732e-21)
(0.00831075 -0.0107419 4.18404e-20)
(0.0138261 -0.0151202 -1.85346e-20)
(0.020687 -0.0194965 1.37423e-21)
(0.0289222 -0.0237711 -3.46163e-20)
(0.0385599 -0.0278776 3.95421e-20)
(0.0496259 -0.0317766 -2.13472e-21)
(0.0621464 -0.035448 -1.41829e-20)
(0.0761489 -0.0388834 -7.11374e-21)
(0.0916611 -0.0420803 8.54013e-21)
(0.10871 -0.045038 4.78426e-21)
(0.127318 -0.0477545 1.36753e-20)
(0.147503 -0.0502245 -2.11237e-20)
(0.169274 -0.0524399 -2.58112e-21)
(0.192629 -0.0543889 2.21564e-21)
(0.217553 -0.0560578 -1.97137e-21)
(0.244015 -0.0574317 4.33433e-21)
(0.271967 -0.0584959 2.87859e-21)
(0.301343 -0.0592371 -5.24549e-23)
(0.332057 -0.0596447 -6.67181e-21)
(0.364002 -0.0597109 1.12843e-21)
(0.397052 -0.059432 2.88028e-21)
(0.431062 -0.0588075 -1.46215e-21)
(0.465864 -0.0578406 -4.63526e-22)
(0.501275 -0.0565369 1.08125e-21)
(0.537084 -0.0549053 -4.70766e-22)
(0.573079 -0.0529536 2.67007e-22)
(0.608985 -0.050697 -2.00055e-22)
(0.644598 -0.0481407 1.29747e-22)
(0.679511 -0.0453177 -4.26157e-24)
(0.713662 -0.0422175 8.4489e-23)
(0.74628 -0.0389363 6.87214e-23)
(0.777906 -0.0353964 -6.01144e-22)
(0.806664 -0.0318876 -4.72003e-22)
(0.835133 -0.0280685 2.59966e-22)
(0.858046 -0.0247877 -4.09215e-22)
(0.884133 -0.0207961 6.079e-22)
(0.898039 -0.0185574 4.75869e-23)
(0.92604 -0.0140573 -1.95872e-22)
(0.0164714 0.00289504 2.77671e-20)
(0.0171818 1.63716e-05 -4.00113e-20)
(0.0198163 -0.00399833 -3.65357e-20)
(0.0237613 -0.0085195 -6.22576e-21)
(0.0288338 -0.013411 6.78612e-20)
(0.0351417 -0.0184532 -9.53566e-20)
(0.0427025 -0.0234764 4.89924e-20)
(0.0515208 -0.0283718 2.57469e-20)
(0.0616122 -0.033069 5.61256e-21)
(0.0729973 -0.0375275 -2.96304e-20)
(0.0857023 -0.0417274 2.39833e-20)
(0.0997582 -0.0456613 -1.79936e-20)
(0.115198 -0.0493273 3.90852e-21)
(0.132056 -0.0527246 5.8412e-21)
(0.150361 -0.0558502 1.55556e-21)
(0.170136 -0.0586975 -3.01348e-20)
(0.191399 -0.0612559 1.49306e-20)
(0.214152 -0.0635109 7.33876e-21)
(0.238388 -0.0654456 -1.2118e-20)
(0.264082 -0.0670417 6.61823e-21)
(0.291193 -0.0682813 6.70406e-21)
(0.319662 -0.0691483 1.39943e-21)
(0.349411 -0.0696294 -6.33188e-22)
(0.380342 -0.0697153 1.50827e-22)
(0.412339 -0.0694006 4.73343e-22)
(0.445265 -0.0686844 1.05378e-22)
(0.478963 -0.06757 2.50546e-22)
(0.51326 -0.0660631 -1.08224e-21)
(0.547956 -0.0641737 -7.94663e-24)
(0.582849 -0.0619107 4.57502e-23)
(0.617676 -0.0592912 -4.23245e-23)
(0.652244 -0.0563205 -4.28256e-23)
(0.686158 -0.0530372 1.79546e-22)
(0.719363 -0.0494275 6.05947e-22)
(0.751103 -0.0456047 -7.04624e-22)
(0.781919 -0.0414748 4.65153e-22)
(0.809961 -0.0373806 -6.51547e-22)
(0.837776 -0.0329158 1.76938e-22)
(0.860162 -0.0290841 1.45843e-22)
(0.885739 -0.0244081 4.38678e-23)
(0.89934 -0.0217946 -1.30919e-22)
(0.926894 -0.0165196 3.37591e-22)
(0.036851 0.00231848 -1.04276e-19)
(0.0381687 -0.00117347 8.9515e-21)
(0.0416425 -0.00578346 1.33729e-20)
(0.0466024 -0.0108869 4.14076e-20)
(0.0526238 -0.0163865 -6.21569e-20)
(0.0597961 -0.0220272 -1.44203e-20)
(0.0681078 -0.027624 3.03605e-20)
(0.077538 -0.0330651 -8.31232e-21)
(0.0880912 -0.0382794 -1.67372e-20)
(0.0997848 -0.0432281 1.65933e-20)
(0.112647 -0.0478934 4.36937e-21)
(0.126715 -0.0522694 -1.42194e-20)
(0.142029 -0.0563551 1.67208e-20)
(0.15863 -0.0601492 -9.85354e-21)
(0.176556 -0.0636476 1.35654e-21)
(0.195837 -0.0668418 2.82662e-20)
(0.216497 -0.0697181 -1.97831e-20)
(0.238547 -0.0722591 5.64028e-21)
(0.261986 -0.0744442 -5.46423e-21)
(0.286795 -0.0762518 4.58068e-21)
(0.312942 -0.0776603 -1.82431e-20)
(0.340376 -0.0786505 8.46609e-21)
(0.369028 -0.0792064 5.12346e-21)
(0.39881 -0.0793165 -1.32562e-21)
(0.429614 -0.078974 2.2346e-22)
(0.461314 -0.0781771 -2.55136e-22)
(0.493766 -0.0769286 -1.6049e-21)
(0.526806 -0.0752347 1.4116e-22)
(0.560246 -0.073106 3.7866e-22)
(0.593898 -0.0705519 1.38586e-22)
(0.62751 -0.0675915 -8.05552e-23)
(0.6609 -0.0642298 -2.39379e-22)
(0.693687 -0.0605108 1.17827e-22)
(0.725825 -0.0564168 -5.88035e-22)
(0.756574 -0.0520778 1.14532e-22)
(0.786476 -0.0473831 7.3636e-22)
(0.813706 -0.042728 -2.28933e-22)
(0.840782 -0.0376405 3.52236e-22)
(0.862571 -0.0332791 5.50873e-22)
(0.887569 -0.0279384 1.0432e-22)
(0.900826 -0.0249654 -5.59963e-23)
(0.927869 -0.018936 1.79094e-22)
(0.060142 0.0013674 1.29916e-20)
(0.0621444 -0.00280535 -5.71389e-20)
(0.0665756 -0.0079788 3.24064e-20)
(0.0726128 -0.0136259 3.61135e-21)
(0.0796418 -0.0196755 -1.12665e-20)
(0.0877201 -0.0258397 8.44164e-20)
(0.0968007 -0.0319273 9.41361e-21)
(0.106839 -0.0378297 -4.19951e-20)
(0.11783 -0.0434798 -3.08595e-20)
(0.129792 -0.0488434 3.98369e-20)
(0.14276 -0.0539061 -3.1045e-20)
(0.156777 -0.0586643 2.57039e-20)
(0.171894 -0.0631175 -2.72545e-20)
(0.188159 -0.0672637 -7.1466e-22)
(0.205621 -0.0710971 2.09906e-21)
(0.224317 -0.0746065 4.60165e-20)
(0.244278 -0.0777752 -7.98486e-21)
(0.265522 -0.080582 3.59309e-21)
(0.288056 -0.0830025 -1.35461e-21)
(0.31187 -0.0850111 -4.13843e-21)
(0.336939 -0.0865827 -7.63213e-22)
(0.363221 -0.0876945 -4.49049e-21)
(0.390654 -0.0883276 9.90041e-21)
(0.419163 -0.088468 1.12737e-21)
(0.448649 -0.0881073 -4.11907e-21)
(0.478999 -0.0872423 1.30247e-21)
(0.510078 -0.0858754 -2.22128e-21)
(0.541736 -0.0840126 1.26143e-21)
(0.573797 -0.0816651 -3.67117e-22)
(0.606084 -0.0788424 1.98412e-23)
(0.638361 -0.0755655 -4.78378e-23)
(0.670457 -0.0718388 1.43762e-22)
(0.702005 -0.0677111 -6.3314e-22)
(0.732969 -0.0631605 8.2427e-23)
(0.76263 -0.0583337 -2.52876e-22)
(0.791523 -0.0531018 -2.68343e-22)
(0.81786 -0.047913 5.44369e-22)
(0.844119 -0.0422281 -4.80039e-22)