/*--------------------------------*- C++ -*----------------------------------*\
  =========                 |
  \\      /  F ield         | OpenFOAM: The Open Source CFD Toolbox
   \\    /   O peration     | Website:  https://openfoam.org
    \\  /    A nd           | Version:  7
     \\/     M anipulation  |
\*---------------------------------------------------------------------------*/
FoamFile
{
    version     2.0;
    format      ascii;
    class       volScalarField;
    location    "10";
    object      p;
}
// * * * * * * * * * * * * * * * * * * * * * * * * * * * * * * * * * * * * * //

dimensions      [0 2 -2 0 0 0 0];

internalField   nonuniform List<scalar> 
8330
(
-0.327472
-0.329005
-0.330619
-0.332344
-0.334208
-0.331999
-0.336242
-0.333677
-0.338473
-0.335499
-0.340924
-0.337485
-0.34361
-0.339663
-0.335068
-0.346564
-0.34204
-0.337071
-0.349807
-0.34463
-0.339281
-0.333026
-0.353358
-0.347451
-0.34171
-0.334956
-0.357231
-0.350516
-0.344373
-0.337075
-0.361439
-0.35384
-0.347281
-0.339383
-0.332095
-0.365993
-0.357439
-0.350441
-0.341879
-0.333921
-0.370904
-0.361325
-0.35386
-0.344563
-0.335875
-0.326672
-0.376177
-0.365511
-0.357539
-0.34744
-0.337941
-0.327518
-0.315687
-0.381817
-0.370008
-0.361476
-0.350514
-0.340088
-0.328256
-0.314824
-0.387827
-0.374823
-0.365667
-0.353787
-0.342269
-0.328844
-0.313735
-0.29774
-0.394204
-0.379956
-0.370108
-0.357248
-0.34443
-0.329244
-0.312408
-0.294979
-0.277818
-0.400943
-0.385398
-0.374796
-0.36087
-0.346511
-0.32942
-0.310831
-0.292005
-0.273815
-0.256742
-0.408032
-0.391134
-0.379723
-0.364607
-0.348454
-0.329341
-0.308992
-0.288815
-0.269649
-0.251873
-0.235472
-0.415451
-0.397139
-0.384882
-0.368392
-0.350199
-0.328978
-0.30688
-0.285402
-0.265313
-0.246878
-0.230037
-0.214766
-0.423174
-0.40338
-0.390249
-0.372146
-0.351694
-0.328303
-0.304484
-0.28176
-0.260798
-0.241749
-0.224498
-0.208914
-0.19439
-0.431159
-0.409819
-0.395785
-0.375781
-0.352883
-0.32729
-0.30179
-0.277878
-0.256093
-0.236471
-0.21884
-0.202973
-0.188341
-0.175723
-0.439353
-0.416413
-0.401432
-0.379209
-0.353717
-0.325913
-0.298783
-0.273743
-0.251186
-0.231032
-0.213052
-0.19693
-0.182214
-0.169482
-0.44769
-0.423114
-0.407104
-0.382345
-0.354145
-0.324148
-0.295449
-0.269342
-0.246063
-0.225418
-0.207119
-0.190773
-0.175997
-0.163168
-0.456088
-0.429867
-0.412697
-0.385104
-0.354119
-0.321968
-0.291769
-0.26466
-0.240709
-0.219615
-0.20103
-0.184492
-0.169679
-0.156771
-0.464452
-0.436609
-0.418088
-0.387408
-0.353594
-0.319348
-0.287725
-0.25968
-0.23511
-0.21361
-0.194773
-0.178076
-0.163251
-0.150282
-0.472676
-0.443267
-0.423145
-0.389181
-0.352526
-0.316261
-0.283298
-0.254386
-0.22925
-0.207389
-0.188334
-0.171514
-0.156703
-0.143693
-0.480646
-0.449757
-0.427732
-0.390348
-0.350873
-0.312683
-0.278468
-0.24876
-0.223115
-0.200938
-0.181705
-0.164797
-0.150026
-0.136996
-0.488242
-0.455982
-0.431715
-0.39084
-0.348596
-0.308586
-0.273216
-0.242785
-0.216689
-0.194246
-0.174873
-0.157917
-0.143212
-0.130186
-0.495339
-0.461833
-0.434968
-0.390589
-0.345658
-0.303947
-0.267521
-0.236445
-0.209959
-0.187301
-0.16783
-0.150865
-0.136253
-0.123257
-0.501813
-0.467185
-0.437374
-0.389532
-0.342025
-0.298741
-0.261365
-0.229724
-0.202912
-0.180091
-0.160567
-0.143634
-0.129143
-0.116204
-0.507539
-0.47191
-0.438829
-0.38761
-0.337665
-0.292945
-0.254728
-0.222606
-0.195535
-0.172607
-0.153077
-0.136218
-0.121878
-0.109025
-0.512397
-0.475867
-0.439241
-0.384768
-0.332547
-0.286539
-0.247594
-0.215078
-0.187817
-0.164841
-0.145352
-0.12861
-0.114452
-0.10172
-0.516269
-0.478918
-0.438529
-0.38096
-0.326645
-0.279501
-0.239947
-0.207127
-0.179749
-0.156784
-0.137388
-0.120806
-0.106863
-0.0942931
-0.519041
-0.480924
-0.436625
-0.376145
-0.319935
-0.271817
-0.231772
-0.198742
-0.171322
-0.148432
-0.129179
-0.112801
-0.099107
-0.0867421
-0.520607
-0.481753
-0.433471
-0.370287
-0.312397
-0.263469
-0.223058
-0.189914
-0.162531
-0.139779
-0.120723
-0.104591
-0.0911804
-0.0790501
-0.520867
-0.481281
-0.429018
-0.36336
-0.304012
-0.254446
-0.213795
-0.180637
-0.153371
-0.130823
-0.112016
-0.096179
-0.0830928
-0.0711743
-0.519726
-0.4794
-0.423223
-0.355342
-0.294768
-0.244737
-0.203975
-0.170904
-0.143838
-0.12156
-0.103055
-0.0875646
-0.074869
-0.0630845
-0.5171
-0.476015
-0.416053
-0.346217
-0.284655
-0.234336
-0.193595
-0.160714
-0.13393
-0.111989
-0.0938418
-0.0787494
-0.0665097
-0.0548504
-0.51291
-0.471046
-0.407481
-0.335976
-0.273667
-0.223239
-0.182651
-0.150064
-0.123644
-0.102108
-0.0843851
-0.0697477
-0.0579205
-0.0465709
-0.507089
-0.464429
-0.397491
-0.324615
-0.261803
-0.211446
-0.171142
-0.138952
-0.112984
-0.0919265
-0.0746988
-0.0605642
-0.0491363
-0.0381977
-0.499576
-0.456116
-0.386074
-0.312135
-0.249066
-0.198958
-0.159067
-0.127386
-0.101963
-0.081467
-0.0647672
-0.0511894
-0.0401909
-0.0297107
-0.490323
-0.446071
-0.37323
-0.298545
-0.235461
-0.185775
-0.146433
-0.115382
-0.0905959
-0.070712
-0.0546051
-0.0416258
-0.0311002
-0.0211067
-0.47929
-0.434276
-0.35897
-0.283857
-0.220995
-0.171901
-0.133267
-0.102956
-0.0788743
-0.0596738
-0.0442209
-0.0318812
-0.0218716
-0.0123917
-0.46645
-0.420726
-0.343307
-0.268088
-0.205671
-0.15736
-0.119601
-0.0900971
-0.066811
-0.0483637
-0.0336239
-0.0219655
-0.0125112
-0.00357435
-0.451786
-0.405428
-0.326267
-0.251258
-0.189512
-0.14222
-0.105396
-0.0768236
-0.0544194
-0.0367943
-0.0228244
-0.0118892
-0.00302636
0.00533526
-0.435292
-0.388406
-0.30788
-0.2334
-0.172575
-0.126442
-0.0906909
-0.0631538
-0.041715
-0.0249793
-0.0118346
-0.00166373
0.00657389
0.0143261
-0.416978
-0.369691
-0.288184
-0.214549
-0.15489
-0.110044
-0.0755089
-0.0491076
-0.0287146
-0.0129338
-0.000667965
0.00869895
0.016279
0.0233861
-0.396861
-0.349327
-0.267228
-0.194749
-0.136472
-0.093064
-0.0598741
-0.0347064
-0.0154372
-0.000674557
0.0106605
0.0191859
0.0260772
0.0325024
-0.374975
-0.327372
-0.245052
-0.174043
-0.117354
-0.0755367
-0.0438133
-0.019974
-0.00190335
0.0117801
0.0221347
0.0297831
0.0359552
0.0416604
-0.351368
-0.303929
-0.221672
-0.152467
-0.0975761
-0.0574972
-0.027356
-0.00493597
0.0118645
0.0244104
0.0337372
0.0404757
0.0458984
0.0508434
-0.326103
-0.279144
-0.197077
-0.130054
-0.0771845
-0.0389843
-0.0105344
0.01038
0.0258424
0.0371954
0.0454495
0.0512478
0.0558899
0.060031
-0.299252
-0.253079
-0.171361
-0.106854
-0.056229
-0.0200399
0.00661652
0.0259441
0.0400047
0.0501126
0.0572524
0.0620825
0.0659114
0.069199
-0.270886
-0.225494
-0.144925
-0.0829529
-0.0347607
-0.000708226
0.0240597
0.0417249
0.0543242
0.0631385
0.0691252
0.0729628
0.0759462
0.0783228
-0.241097
-0.196526
-0.117826
-0.0584396
-0.0128334
0.0189643
0.0417558
0.0576891
0.0687727
0.0762481
0.081046
0.0838725
0.0859824
0.0873841
-0.209994
-0.166376
-0.0900297
-0.0333928
0.00949458
0.0389294
0.0596637
0.0738019
0.0833201
0.089415
0.0929927
0.0947979
0.0960101
0.0963594
-0.177657
-0.135223
-0.0615733
-0.00788726
0.0321621
0.0591364
0.0777405
0.0900271
0.0979354
0.102612
0.104945
0.10573
0.106003
0.10514
-0.144135
-0.103292
-0.032537
0.0180033
0.0551057
0.0795328
0.0959415
0.106327
0.112586
0.115812
0.116889
0.116665
0.115888
0.113444
-0.109641
-0.070654
-0.00301464
0.0442026
0.0782599
0.100064
0.114221
0.122662
0.127238
0.128988
0.128812
0.127583
0.125548
0.121046
-0.0743138
-0.0374155
0.0268933
0.0706316
0.101558
0.120674
0.132531
0.138993
0.141858
0.142116
0.140696
0.138427
0.134904
0.1285
-0.0382921
-0.00369973
0.0570827
0.0972083
0.12493
0.141305
0.150824
0.155278
0.15641
0.155169
0.152505
0.149108
0.143965
0.137262
-0.00172291
0.0303644
0.0874467
0.123849
0.148306
0.161898
0.169051
0.171476
0.170861
0.168118
0.164194
0.159592
0.153086
0.146355
0.0352417
0.0646447
0.117877
0.150467
0.171616
0.182394
0.18716
0.187543
0.185175
0.180932
0.17573
0.169904
0.162264
0.155328
0.0724468
0.0990071
0.148264
0.176976
0.194786
0.202733
0.205101
0.203438
0.199317
0.193576
0.187086
0.180051
0.171419
0.164123
0.109735
0.133316
0.178498
0.203288
0.217744
0.222854
0.222824
0.219117
0.21325
0.206018
0.198239
0.190021
0.180474
0.172675
0.146949
0.167437
0.20847
0.229315
0.240417
0.242696
0.240278
0.234537
0.226937
0.218226
0.209164
0.199797
0.189373
0.180975
0.183929
0.201233
0.23807
0.254969
0.262733
0.262199
0.25741
0.249656
0.240342
0.230169
0.219839
0.209353
0.198078
0.189015
0.220519
0.23457
0.26719
0.280162
0.284618
0.281301
0.274172
0.264432
0.253429
0.241816
0.230237
0.218663
0.206556
0.196791
0.256563
0.267313
0.295723
0.304808
0.306002
0.299944
0.290513
0.278821
0.266162
0.253136
0.240335
0.227704
0.214782
0.204293
0.291905
0.299331
0.323564
0.328821
0.326813
0.31807
0.306383
0.292783
0.278506
0.2641
0.250106
0.236451
0.222734
0.211511
0.326395
0.330496
0.350611
0.352119
0.346984
0.335619
0.321736
0.306277
0.290426
0.274678
0.259527
0.244881
0.230393
0.218436
0.359883
0.360685
0.376763
0.37462
0.366446
0.352537
0.336522
0.319264
0.301888
0.284843
0.268572
0.252972
0.237739
0.225054
0.392225
0.389776
0.401925
0.396245
0.385134
0.368769
0.350698
0.331704
0.312861
0.294566
0.277219
0.260704
0.244755
0.231354
0.423281
0.417654
0.426002
0.416918
0.402986
0.384262
0.36422
0.343562
0.323312
0.30382
0.285444
0.268056
0.251423
0.237324
0.452919
0.444208
0.448906
0.436566
0.419941
0.398967
0.377044
0.354801
0.333213
0.312582
0.293226
0.27501
0.257727
0.242953
0.481009
0.469333
0.470551
0.45512
0.435941
0.412835
0.389131
0.365388
0.342533
0.320825
0.300544
0.281548
0.263652
0.24823
0.507431
0.492928
0.490858
0.472515
0.450932
0.425821
0.400443
0.375291
0.351247
0.328527
0.307378
0.287652
0.269182
0.253143
0.532071
0.514901
0.50975
0.488687
0.464863
0.437882
0.410944
0.384479
0.359327
0.335667
0.31371
0.293306
0.274303
0.257682
0.554823
0.535165
0.527157
0.503581
0.477686
0.448979
0.420601
0.392925
0.366752
0.342224
0.319522
0.298496
0.279003
0.261839
0.575589
0.553639
0.543015
0.517142
0.489357
0.459075
0.429383
0.400602
0.373499
0.34818
0.3248
0.303208
0.283268
0.265605
0.59428
0.57025
0.557265
0.529323
0.499836
0.468136
0.437262
0.407488
0.379547
0.353518
0.329528
0.307428
0.287089
0.268971
0.610816
0.584932
0.569853
0.540079
0.509087
0.476132
0.444213
0.41356
0.38488
0.358222
0.333694
0.311147
0.290454
0.271932
0.625125
0.597628
0.580733
0.549373
0.517078
0.483038
0.450214
0.418801
0.389481
0.36228
0.337286
0.314352
0.293354
0.27448
0.637147
0.608287
0.589864
0.557171
0.52378
0.488829
0.455246
0.423195
0.393337
0.365679
0.340295
0.317037
0.295784
0.276612
0.646829
0.616867
0.597211
0.563445
0.529172
0.493486
0.459291
0.426726
0.396436
0.368411
0.342712
0.319194
0.297734
0.278322
0.65413
0.623335
0.602748
0.568172
0.533234
0.496994
0.462338
0.429386
0.39877
0.370467
0.344531
0.320816
0.299201
0.279605
0.659019
0.627664
0.606454
0.571335
0.535952
0.499341
0.464377
0.431165
0.40033
0.371842
0.345747
0.321901
0.300182
0.280462
0.661473
0.629837
0.608314
0.572923
0.537316
0.500519
0.465399
0.432057
0.401112
0.372531
0.346356
0.322445
0.300676
0.280905
0.661484
0.629846
0.608323
0.572929
0.537322
0.500524
0.465403
0.432059
0.401114
0.372533
0.346358
0.322446
0.300678
0.280911
0.659051
0.627691
0.606478
0.571355
0.535969
0.499355
0.464387
0.431172
0.400335
0.371845
0.345749
0.321902
0.300183
0.280463
0.654183
0.62338
0.602788
0.568204
0.533261
0.497016
0.462355
0.429398
0.398777
0.370472
0.344533
0.320817
0.2992
0.279601
0.646902
0.616929
0.597265
0.563489
0.529209
0.493515
0.459313
0.426741
0.396445
0.368416
0.342713
0.319192
0.297731
0.278313
0.637238
0.608365
0.589931
0.557227
0.523825
0.488863
0.455271
0.423211
0.393347
0.365683
0.340294
0.317034
0.295777
0.276599
0.625234
0.597721
0.580812
0.549438
0.51713
0.483077
0.450242
0.418819
0.389491
0.362282
0.337283
0.314347
0.293346
0.274464
0.61094
0.585038
0.569943
0.540153
0.509145
0.476175
0.444243
0.413578
0.384888
0.358223
0.333689
0.311139
0.290443
0.271912
0.594417
0.570367
0.557364
0.529403
0.499899
0.468181
0.437293
0.407505
0.379554
0.353517
0.329522
0.30742
0.287077
0.268948
0.575737
0.553766
0.543122
0.517228
0.489423
0.459122
0.429414
0.400619
0.373505
0.348178
0.324792
0.303198
0.283256
0.265579
0.55498
0.5353
0.52727
0.503671
0.477754
0.449027
0.420631
0.39294
0.366757
0.342221
0.319514
0.298486
0.27899
0.261811
0.532235
0.515043
0.509868
0.48878
0.464932
0.43793
0.410974
0.384494
0.359331
0.335663
0.313701
0.293297
0.274291
0.257652
0.5076
0.493074
0.490979
0.472608
0.451002
0.425868
0.400472
0.375305
0.351249
0.328523
0.307369
0.287643
0.26917
0.253111
0.481181
0.469481
0.470674
0.455215
0.43601
0.412882
0.389159
0.365401
0.342536
0.32082
0.300535
0.281539
0.263641
0.248196
0.453092
0.444357
0.449029
0.43666
0.420009
0.399012
0.377071
0.354814
0.333215
0.312578
0.293218
0.275003
0.257717
0.242919
0.423454
0.417803
0.426124
0.41701
0.403053
0.384307
0.364246
0.343574
0.323315
0.303817
0.285437
0.26805
0.251414
0.237288
0.392394
0.389923
0.402045
0.396335
0.385199
0.368812
0.350724
0.331717
0.312864
0.294563
0.277213
0.260699
0.244747
0.231317
0.360048
0.360829
0.376881
0.374708
0.366509
0.352579
0.336547
0.319276
0.301892
0.284841
0.268568
0.252969
0.237733
0.225016
0.326555
0.330636
0.350725
0.352205
0.347045
0.33566
0.32176
0.30629
0.290431
0.274678
0.259524
0.244879
0.230389
0.218397
0.292058
0.299466
0.323674
0.328904
0.326873
0.318109
0.306408
0.292797
0.278512
0.264102
0.250105
0.236451
0.222732
0.211473
0.256708
0.267442
0.295829
0.304887
0.306059
0.299983
0.290537
0.278835
0.26617
0.253139
0.240335
0.227706
0.214782
0.204254
0.220655
0.234692
0.267291
0.280238
0.284673
0.281339
0.274197
0.264447
0.253439
0.241821
0.230239
0.218668
0.206559
0.196753
0.184056
0.201349
0.238165
0.255041
0.262786
0.262236
0.257435
0.249672
0.240353
0.230176
0.219842
0.209359
0.198084
0.188979
0.147066
0.167545
0.20856
0.229384
0.240468
0.242732
0.240303
0.234554
0.226949
0.218235
0.209169
0.199805
0.189384
0.18094
0.109842
0.133416
0.178583
0.203353
0.217793
0.22289
0.22285
0.219134
0.213263
0.206028
0.198246
0.190032
0.180489
0.172644
0.0725436
0.0990992
0.148343
0.177038
0.194833
0.202768
0.205127
0.203456
0.199331
0.193587
0.187095
0.180063
0.171441
0.164099
0.0353282
0.0647287
0.11795
0.150525
0.171661
0.182429
0.187186
0.187563
0.185191
0.180945
0.17574
0.169917
0.162292
0.15532
-0.00164664
0.0304402
0.0875141
0.123903
0.148349
0.161932
0.169076
0.171496
0.170878
0.168133
0.164206
0.159605
0.153121
0.146376
-0.0382259
-0.00363204
0.0571444
0.0972591
0.124971
0.141337
0.15085
0.155299
0.156428
0.155186
0.152519
0.149121
0.144003
0.137334
-0.0742575
-0.0373558
0.0269494
0.0706789
0.101597
0.120706
0.132557
0.139015
0.141877
0.142134
0.140713
0.138441
0.13494
0.128614
-0.109594
-0.0706021
-0.00296404
0.0442465
0.0782973
0.100095
0.114247
0.122684
0.127258
0.129007
0.128831
0.1276
0.125578
0.121138
-0.144097
-0.103248
-0.0324917
0.0180437
0.0551412
0.0795631
0.0959674
0.106349
0.112606
0.115831
0.116908
0.116683
0.115912
0.113503
-0.177628
-0.135186
-0.0615333
-0.00785011
0.0321957
0.0591659
0.0777661
0.0900494
0.0979555
0.102631
0.104965
0.105749
0.106023
0.105182
-0.209973
-0.166347
-0.0899947
-0.0333589
0.00952627
0.0389579
0.059689
0.0738243
0.0833404
0.0894345
0.0930126
0.0948166
0.0960295
0.0963931
-0.241084
-0.196503
-0.117796
-0.0584088
-0.0128036
0.0189919
0.0417806
0.0577113
0.0687929
0.0762675
0.0810656
0.0838911
0.0860012
0.0874134
-0.27088
-0.225477
-0.144899
-0.0829252
-0.0347327
-0.000681754
0.024084
0.0417468
0.0543444
0.0631577
0.0691443
0.072981
0.0759642
0.0783482
-0.299253
-0.253069
-0.17134
-0.106829
-0.0562029
-0.0200145
0.00664015
0.0259657
0.0400246
0.0501315
0.057271
0.0621002
0.0659284
0.0692212
-0.32611
-0.279139
-0.19706
-0.130032
-0.0771602
-0.0389601
-0.0105115
0.0104011
0.0258619
0.0372138
0.0454676
0.0512649
0.055906
0.0600506
-0.351379
-0.303929
-0.221659
-0.152448
-0.0975537
-0.0574742
-0.0273338
-0.00491539
0.0118836
0.0244284
0.0337546
0.0404922
0.0459138
0.050861
-0.374991
-0.327377
-0.245043
-0.174027
-0.117333
-0.0755148
-0.043792
-0.0199541
-0.00188481
0.0117975
0.0221515
0.029799
0.03597
0.0416765
-0.396882
-0.349336
-0.267222
-0.194736
-0.136453
-0.0930434
-0.0598537
-0.0346872
-0.0154192
-0.000657712
0.0106767
0.0192013
0.0260914
0.0325172
-0.417002
-0.369705
-0.288182
-0.214538
-0.154873
-0.110024
-0.0754894
-0.049089
-0.0286973
-0.0129175
-0.00065237
0.00871384
0.0162928
0.0233999
-0.435321
-0.388423
-0.307881
-0.233391
-0.17256
-0.126424
-0.0906724
-0.0631361
-0.0416983
-0.0249636
-0.0118196
-0.00164936
0.00658719
0.014339
-0.451817
-0.405448
-0.326271
-0.251252
-0.189498
-0.142203
-0.105378
-0.0768067
-0.0544034
-0.0367793
-0.02281
-0.0118754
-0.00301347
0.00534748
-0.466484
-0.420748
-0.343314
-0.268083
-0.205659
-0.157344
-0.119585
-0.0900809
-0.0667957
-0.0483493
-0.0336101
-0.0219521
-0.0124987
-0.00356275
-0.479326
-0.434301
-0.358979
-0.283855
-0.220984
-0.171887
-0.133252
-0.102941
-0.0788597
-0.05966
-0.0442077
-0.0318683
-0.0218594
-0.0123807
-0.49036
-0.446098
-0.373242
-0.298544
-0.235453
-0.185762
-0.146418
-0.115367
-0.090582
-0.0706988
-0.0545924
-0.0416134
-0.0310884
-0.0210961
-0.499614
-0.456144
-0.386087
-0.312136
-0.249058
-0.198946
-0.159054
-0.127372
-0.101949
-0.0814544
-0.0647549
-0.0511775
-0.0401795
-0.0297005
-0.507128
-0.464459
-0.397506
-0.324617
-0.261797
-0.211435
-0.17113
-0.138939
-0.112971
-0.0919145
-0.0746871
-0.0605527
-0.0491252
-0.0381879
-0.51295
-0.471077
-0.407498
-0.33598
-0.273662
-0.223229
-0.18264
-0.150052
-0.123632
-0.102097
-0.0843739
-0.0697366
-0.0579098
-0.0465614
-0.51714
-0.476046
-0.416071
-0.346223
-0.284651
-0.234327
-0.193584
-0.160703
-0.133918
-0.111978
-0.0938311
-0.0787388
-0.0664994
-0.0548413
-0.519766
-0.479431
-0.423242
-0.355349
-0.294766
-0.244729
-0.203965
-0.170893
-0.143827
-0.12155
-0.103045
-0.0875543
-0.0748591
-0.0630758
-0.520906
-0.481313
-0.429038
-0.363368
-0.304011
-0.254439
-0.213786
-0.180626
-0.153361
-0.130813
-0.112006
-0.0961692
-0.0830832
-0.0711659
-0.520646
-0.481784
-0.433492
-0.370296
-0.312396
-0.263463
-0.22305
-0.189905
-0.162522
-0.13977
-0.120713
-0.104582
-0.0911712
-0.0790419
-0.519079
-0.480955
-0.436646
-0.376154
-0.319936
-0.271812
-0.231764
-0.198733
-0.171314
-0.148423
-0.12917
-0.112792
-0.0990981
-0.0867342
-0.516305
-0.478948
-0.43855
-0.380971
-0.326647
-0.279498
-0.23994
-0.207119
-0.179741
-0.156776
-0.137379
-0.120798
-0.106855
-0.0942855
-0.512432
-0.475896
-0.439262
-0.384779
-0.332549
-0.286535
-0.247588
-0.215071
-0.187809
-0.164833
-0.145344
-0.128602
-0.114444
-0.101713
-0.507573
-0.471937
-0.43885
-0.387621
-0.337668
-0.292943
-0.254723
-0.222599
-0.195527
-0.1726
-0.153069
-0.13621
-0.12187
-0.109018
-0.501845
-0.467212
-0.437395
-0.389544
-0.342029
-0.298739
-0.26136
-0.229718
-0.202905
-0.180084
-0.16056
-0.143627
-0.129136
-0.116197
-0.49537
-0.461858
-0.434988
-0.390601
-0.345663
-0.303946
-0.267517
-0.236439
-0.209953
-0.187294
-0.167823
-0.150858
-0.136246
-0.12325
-0.488271
-0.456007
-0.431735
-0.390852
-0.348601
-0.308586
-0.273212
-0.24278
-0.216683
-0.19424
-0.174867
-0.157911
-0.143205
-0.13018
-0.480674
-0.44978
-0.427751
-0.39036
-0.350878
-0.312683
-0.278465
-0.248755
-0.223109
-0.200933
-0.181699
-0.164791
-0.15002
-0.136991
-0.472702
-0.443288
-0.423164
-0.389192
-0.352532
-0.316262
-0.283295
-0.254381
-0.229245
-0.207384
-0.188329
-0.171508
-0.156697
-0.143687
-0.464476
-0.436629
-0.418105
-0.38742
-0.3536
-0.319349
-0.287723
-0.259676
-0.235106
-0.213605
-0.194768
-0.178071
-0.163246
-0.150277
-0.456111
-0.429886
-0.412713
-0.385116
-0.354126
-0.32197
-0.291767
-0.264656
-0.240705
-0.219611
-0.201026
-0.184487
-0.169674
-0.156766
-0.447711
-0.423132
-0.407119
-0.382356
-0.354151
-0.32415
-0.295448
-0.269339
-0.246059
-0.225414
-0.207115
-0.190769
-0.175992
-0.163164
-0.439373
-0.41643
-0.401446
-0.37922
-0.353723
-0.325916
-0.298783
-0.273741
-0.251183
-0.231028
-0.213048
-0.196926
-0.18221
-0.169478
-0.431177
-0.409835
-0.395799
-0.375791
-0.35289
-0.327293
-0.30179
-0.277876
-0.256091
-0.236468
-0.218837
-0.202969
-0.188338
-0.175719
-0.42319
-0.403394
-0.390261
-0.372155
-0.3517
-0.328306
-0.304484
-0.281759
-0.260796
-0.241746
-0.224495
-0.208911
-0.194387
-0.415467
-0.397152
-0.384893
-0.368401
-0.350206
-0.328982
-0.306881
-0.285401
-0.265311
-0.246876
-0.230035
-0.408046
-0.391147
-0.379734
-0.364616
-0.34846
-0.329345
-0.308993
-0.288814
-0.269648
-0.251871
-0.400956
-0.38541
-0.374806
-0.360879
-0.346518
-0.329424
-0.310832
-0.292005
-0.273814
-0.256741
-0.394216
-0.379967
-0.370118
-0.357255
-0.344436
-0.329248
-0.31241
-0.29498
-0.277818
-0.387838
-0.374833
-0.365676
-0.353794
-0.342275
-0.328848
-0.313738
-0.297741
-0.381828
-0.370018
-0.361484
-0.350521
-0.340093
-0.32826
-0.314827
-0.376187
-0.36552
-0.357547
-0.347446
-0.337947
-0.327522
-0.31569
-0.370913
-0.361333
-0.353867
-0.344569
-0.33588
-0.326676
-0.366002
-0.357447
-0.350448
-0.341885
-0.333926
-0.361447
-0.353848
-0.347287
-0.339388
-0.3321
-0.357238
-0.350523
-0.34438
-0.33708
-0.353365
-0.347457
-0.341716
-0.33496
-0.349814
-0.344637
-0.339286
-0.34657
-0.342046
-0.337076
-0.343616
-0.339669
-0.335073
-0.34093
-0.337491
-0.338479
-0.335504
-0.336248
-0.333683
-0.334214
-0.33235
-0.330625
-0.329011
-0.327478
-0.101996
-0.108941
-0.115789
-0.122543
-0.129206
-0.135783
-0.142279
-0.148701
-0.155055
-0.16135
-0.167593
-0.0991073
-0.105872
-0.112548
-0.119138
-0.125646
-0.132075
-0.138432
-0.144721
-0.150949
-0.157123
-0.163251
-0.096275
-0.10283
-0.109303
-0.115696
-0.122013
-0.128257
-0.134434
-0.140547
-0.146603
-0.152607
-0.158567
-0.0934684
-0.0998303
-0.106117
-0.112331
-0.118476
-0.124555
-0.130572
-0.136531
-0.142438
-0.148299
-0.154119
-0.0907044
-0.0968794
-0.102987
-0.109029
-0.115009
-0.12093
-0.126795
-0.13261
-0.138378
-0.144106
-0.149798
-0.0879887
-0.0939775
-0.0999054
-0.105774
-0.111587
-0.117347
-0.123058
-0.128723
-0.134347
-0.139935
-0.145492
-0.0853186
-0.0911218
-0.09687
-0.102565
-0.108209
-0.113805
-0.119357
-0.124868
-0.130341
-0.135783
-0.141196
-0.0826926
-0.0883116
-0.0938809
-0.099402
-0.104877
-0.110309
-0.1157
-0.121054
-0.126374
-0.131665
-0.13693
-0.0801106
-0.0855473
-0.0909391
-0.0962872
-0.101593
-0.10686
-0.11209
-0.117286
-0.122452
-0.12759
-0.132705
-0.0775727
-0.0828292
-0.0880451
-0.0932212
-0.0983591
-0.103461
-0.108529
-0.113567
-0.118575
-0.123559
-0.128521
-0.0750789
-0.0801576
-0.0851992
-0.0902046
-0.095175
-0.100112
-0.105019
-0.109897
-0.114748
-0.119576
-0.124383
-0.072629
-0.0775325
-0.0824021
-0.0872382
-0.0920422
-0.0968158
-0.101561
-0.106279
-0.110972
-0.115643
-0.120295
-0.0702231
-0.0749542
-0.0796541
-0.0843229
-0.088962
-0.0935727
-0.0981565
-0.102715
-0.10725
-0.111764
-0.116259
-0.0678618
-0.0724235
-0.076956
-0.0814597
-0.0859357
-0.0903849
-0.0948087
-0.0992084
-0.103586
-0.107942
-0.112281
-0.0655448
-0.0699402
-0.0743083
-0.0786495
-0.0829644
-0.087254
-0.0915192
-0.0957613
-0.0999815
-0.104182
-0.108363
-0.0632724
-0.0675048
-0.0717117
-0.0758932
-0.0800496
-0.0841817
-0.0882902
-0.0923761
-0.0964406
-0.100485
-0.104511
-0.0610465
-0.0651193
-0.0691679
-0.0731924
-0.077193
-0.0811699
-0.0851237
-0.0890554
-0.0929658
-0.0968561
-0.100727
-0.0588681
-0.0627847
-0.0666782
-0.0705488
-0.0743962
-0.0782205
-0.0820222
-0.0858019
-0.0895604
-0.0932984
-0.097017
-0.0567362
-0.0605009
-0.0642432
-0.0679632
-0.0716606
-0.0753354
-0.0789878
-0.0826182
-0.0862271
-0.0898153
-0.0933834
-0.0546526
-0.0582693
-0.0618642
-0.0654373
-0.0689882
-0.0725167
-0.0760229
-0.079507
-0.0829693
-0.0864103
-0.0898305
-0.0526185
-0.0560913
-0.0595427
-0.0629727
-0.0663808
-0.0697666
-0.07313
-0.0764711
-0.0797899
-0.0830869
-0.0863623
-0.0506348
-0.0539679
-0.0572801
-0.0605711
-0.0638402
-0.0670872
-0.0703115
-0.0735132
-0.0766923
-0.0798487
-0.0829828
-0.0487027
-0.0519007
-0.0550781
-0.0582344
-0.0613688
-0.0644809
-0.0675703
-0.0706365
-0.0736796
-0.0766993
-0.0796958
-0.0468241
-0.0498916
-0.0529387
-0.0559647
-0.0589689
-0.0619505
-0.064909
-0.067844
-0.0707552
-0.0736424
-0.0765055
-0.0450006
-0.0479424
-0.050864
-0.0537644
-0.0566429
-0.0594986
-0.0623308
-0.0651391
-0.0679229
-0.0706819
-0.073416
-0.0432345
-0.0460555
-0.0488564
-0.0516362
-0.0543937
-0.0571282
-0.0598389
-0.062525
-0.0651862
-0.0678218
-0.0704316
-0.041528
-0.0442334
-0.0469187
-0.0495827
-0.0522244
-0.0548426
-0.0574367
-0.0600057
-0.0625491
-0.0650663
-0.0675568
-0.0398843
-0.0424792
-0.0450541
-0.0476076
-0.0501384
-0.0526455
-0.0551281
-0.0575852
-0.060016
-0.0624199
-0.0647963
-0.0383043
-0.0407948
-0.043265
-0.0457135
-0.048139
-0.0505405
-0.0529169
-0.0552675
-0.0575911
-0.0598872
-0.062155
-0.0367922
-0.039185
-0.0415561
-0.043905
-0.0462307
-0.0485321
-0.050808
-0.0530575
-0.0552796
-0.0574735
-0.0596384
-0.0353554
-0.0376547
-0.0399321
-0.042187
-0.0444184
-0.0466253
-0.0488063
-0.0509604
-0.0530867
-0.0551841
-0.057252
-0.0339986
-0.0362093
-0.0383983
-0.0405648
-0.0427076
-0.0448255
-0.0469173
-0.0489819
-0.0510182
-0.0530253
-0.0550022
-0.0327239
-0.0348522
-0.0369589
-0.0390429
-0.0411031
-0.0431381
-0.0451468
-0.047128
-0.0490805
-0.0510034
-0.0528957
-0.0315376
-0.0335897
-0.0356201
-0.0376278
-0.0396114
-0.0415698
-0.0435016
-0.0454056
-0.0472807
-0.0491258
-0.05094
-0.0304457
-0.0324278
-0.0343883
-0.0363259
-0.0382394
-0.0401274
-0.0419887
-0.0438221
-0.0456263
-0.0474004
-0.0491432
-0.0294549
-0.0313736
-0.0332707
-0.0351448
-0.0369947
-0.0388191
-0.0406166
-0.0423861
-0.0441263
-0.0458362
-0.0475146
-0.0285732
-0.0304352
-0.0322756
-0.034093
-0.0358861
-0.0376537
-0.0393944
-0.041107
-0.0427903
-0.0444432
-0.0460645
-0.0278096
-0.029622
-0.0314127
-0.0331804
-0.0349239
-0.0366419
-0.038333
-0.0399961
-0.0416299
-0.0432333
-0.0448052
-0.0271727
-0.0289427
-0.0306911
-0.0324166
-0.0341179
-0.0357938
-0.0374429
-0.0390641
-0.0406562
-0.0422179
-0.0437484
-0.0266791
-0.0284145
-0.0301283
-0.0318193
-0.0334862
-0.0351278
-0.0367429
-0.0383301
-0.0398884
-0.0414167
-0.0429139
-0.0263274
-0.0280363
-0.0297239
-0.0313891
-0.0330306
-0.0346471
-0.0362373
-0.0378002
-0.0393344
-0.040839
-0.0423129
-0.0437551
-0.0261648
-0.027855
-0.0295234
-0.0311689
-0.0327906
-0.0343876
-0.0359587
-0.0375028
-0.0390189
-0.0405059
-0.0419629
-0.0433889
0.123006
0.114873
0.10713
0.0993094
0.0910109
0.0825549
0.0740802
0.0655652
0.0570168
0.0484616
0.0399184
0.0314005
0.02292
0.0144878
0.00611326
-0.00219505
-0.0104295
-0.0185833
-0.0266505
-0.0346267
-0.0425062
-0.0502882
-0.057989
-0.0657175
-0.073228
-0.0805716
-0.0878088
-0.0949516
0.119845
0.111434
0.103242
0.0955419
0.0874498
0.0791964
0.0709751
0.0627423
0.0544859
0.0462317
0.0379961
0.0297884
0.0216182
0.0134945
0.0054254
-0.00258214
-0.0105219
-0.0183887
-0.0261781
-0.0338873
-0.0415137
-0.0490582
-0.0565003
-0.0639022
-0.0711535
-0.078275
-0.0853059
-0.0922517
0.115899
0.107561
0.0990895
0.0915481
0.0837624
0.0757516
0.0677855
0.0598378
0.051872
0.0439114
0.0359744
0.028068
0.0201994
0.0123767
0.00460685
-0.00310411
-0.010751
-0.0183291
-0.0258347
-0.033264
-0.0406107
-0.0478643
-0.0550102
-0.0621887
-0.0692058
-0.0761003
-0.0829085
-0.0896344
0.111593
0.10357
0.0950313
0.0876405
0.080187
0.0724488
0.0647362
0.0570731
0.0494022
0.0417358
0.0340957
0.0264883
0.0189181
0.0113919
0.00391596
-0.00350465
-0.0108656
-0.0181628
-0.0253929
-0.0325524
-0.039636
-0.0466345
-0.0535377
-0.0604375
-0.0672293
-0.0739138
-0.080511
-0.087029
0.107177
0.0995393
0.0910645
0.0838098
0.0766746
0.0692297
0.0617717
0.0543859
0.0470079
0.0396329
0.0322839
0.024969
0.0176908
0.0104542
0.00326497
-0.00387261
-0.010955
-0.0179787
-0.0249412
-0.0318399
-0.0386747
-0.0454485
-0.0521702
-0.058714
-0.0652709
-0.071753
-0.078145
-0.08446
0.10276
0.0955015
0.0871841
0.0800725
0.0732344
0.0660951
0.0588976
0.0517813
0.0446906
0.0376027
0.0305379
0.0235075
0.016513
0.00955786
0.00264683
-0.00421624
-0.0110284
-0.0177868
-0.0244893
-0.0311339
-0.0377202
-0.0442443
-0.0506927
-0.0570236
-0.0633613
-0.0696356
-0.0758233
-0.081938
0.0983851
0.0914806
0.0833887
0.07644
0.0698784
0.0630467
0.0561165
0.0492635
0.0424528
0.035647
0.0288604
0.0221068
0.0153883
0.00870677
0.00206597
-0.00453055
-0.0110802
-0.0175807
-0.0240301
-0.0304263
-0.0367678
-0.0430493
-0.0492632
-0.0553799
-0.0614968
-0.0675588
-0.0735431
-0.0794598
0.0940793
0.0875049
0.079683
0.0729192
0.066617
0.0600872
0.0534289
0.0468349
0.0402956
0.033766
0.0272513
0.0207669
0.0143166
0.00790078
0.0015224
-0.00481542
-0.0111103
-0.0173603
-0.0235634
-0.0297177
-0.0358213
-0.0418693
-0.047857
-0.0537637
-0.0596658
-0.0655182
-0.0713015
-0.0770234
0.089865
0.0835996
0.0760735
0.0695134
0.063458
0.0572201
0.0508349
0.0444968
0.0382204
0.0319596
0.0257105
0.0194879
0.0132975
0.00713962
0.00101581
-0.00507111
-0.0111189
-0.0171257
-0.0230897
-0.029009
-0.0348818
-0.0407038
-0.0464716
-0.0521719
-0.0578659
-0.0635133
-0.0690986
-0.0746285
0.0857582
0.0797832
0.0725668
0.0662247
0.0604067
0.054449
0.0483349
0.0422497
0.0362282
0.0302282
0.0242377
0.0182696
0.0123312
0.00642312
0.000546032
-0.00529775
-0.0111061
-0.0168771
-0.0226093
-0.0283007
-0.0339497
-0.0395526
-0.0451071
-0.0506048
-0.0560965
-0.0615439
-0.0669345
-0.0722751
0.08177
0.0760695
0.0691685
0.0630544
0.0574665
0.0517771
0.0459297
0.0400939
0.0343199
0.028572
0.0228328
0.0171118
0.0114174
0.00575105
0.00011281
-0.00549556
-0.011072
-0.0166147
-0.0221223
-0.0275929
-0.0330249
-0.0384154
-0.0437627
-0.0490618
-0.054357
-0.0596091
-0.0648086
-0.0699631
0.0779086
0.0724685
0.0658837
0.0600036
0.0546396
0.049207
0.0436198
0.0380293
0.0324956
0.0269912
0.0214954
0.016014
0.0105558
0.00512313
-0.000284161
-0.00566482
-0.0110169
-0.0163388
-0.0216289
-0.0268857
-0.0321076
-0.0372921
-0.0424381
-0.0475426
-0.0526468
-0.0577084
-0.0627204
-0.067692
0.0741799
0.0689879
0.0627165
0.0570734
0.0519277
0.0467406
0.041406
0.0360555
0.0307553
0.0254858
0.0202252
0.0149757
0.00974598
0.00453898
-0.000645247
-0.00580588
-0.0109412
-0.0160495
-0.0211293
-0.0261791
-0.0311975
-0.0361824
-0.041133
-0.0460478
-0.0509669
-0.0558419
-0.0606696
-0.0654615
0.0705886
0.0656335
0.0596701
0.0542646
0.0493314
0.0443793
0.0392888
0.0341722
0.0290985
0.0240556
0.0190218
0.0139965
0.0089874
0.00399816
-0.000970864
-0.00591914
-0.0108452
-0.0157473
-0.020624
-0.0254737