/*--------------------------------*- C++ -*----------------------------------*\
  =========                 |
  \\      /  F ield         | OpenFOAM: The Open Source CFD Toolbox
   \\    /   O peration     | Website:  https://openfoam.org
    \\  /    A nd           | Version:  7
     \\/     M anipulation  |
\*---------------------------------------------------------------------------*/
FoamFile
{
    version     2.0;
    format      ascii;
    class       surfaceScalarField;
    location    "10";
    object      phi;
}
// * * * * * * * * * * * * * * * * * * * * * * * * * * * * * * * * * * * * * //

dimensions      [0 3 -1 0 0 0 0];

internalField   nonuniform List<scalar> 
16357
(
0.00017055
0.000170468
0.000170648
0.000171059
-5.48393e-07
0.000171608
0.000327504
-5.36775e-07
0.000172145
0.000313101
-3.16401e-07
0.000172461
0.000296002
1.53197e-07
0.000172308
0.000275578
8.03836e-07
0.000171504
2.53532e-05
0.000251029
0.000118896
1.76529e-06
0.000169739
3.11994e-05
0.000221595
4.04207e-05
3.03919e-06
0.000166699
3.81727e-05
0.000186461
0.000129153
-5.056e-05
-0.000565548
4.63163e-06
0.000162068
4.63052e-05
0.000144788
0.000151204
-0.000155459
-0.000763563
6.54512e-06
0.000155523
5.56075e-05
9.57253e-05
0.000175777
-0.000275628
-0.000985465
8.77851e-06
0.000146744
6.60718e-05
3.8432e-05
0.000202749
-0.000412306
0.000448796
-0.00123151
-0.00237479
1.13281e-05
0.000135416
7.76751e-05
-2.7915e-05
0.000231921
-0.000566552
0.000501561
-0.00150115
-0.00275147
1.41889e-05
0.000121227
9.03801e-05
-0.000104106
0.000262995
-0.000739166
0.000554767
-0.00179292
0.000943376
-0.00314008
-0.00455092
1.73549e-05
0.000103872
0.000104135
-0.000190886
0.000295568
-0.0009306
0.000607079
-0.00210444
0.00100155
-0.00353455
0.00140911
-0.00495847
-0.00618841
2.08198e-05
8.30525e-05
0.000118868
-0.000288935
0.000329126
-0.00114086
0.000657126
-0.00243244
0.00105142
-0.00392885
0.00143982
-0.00534687
-0.00652486
2.45771e-05
5.84753e-05
0.000134485
-0.000398842
0.00036305
-0.00136942
0.000703602
-0.00277299
0.00109208
-0.00431733
0.00145791
-0.0057127
0.00176437
-0.00683133
-0.00768567
2.86193e-05
2.98561e-05
0.000150852
-0.000521075
0.00039664
-0.00161521
0.000745355
-0.0031217
0.00112309
-0.00469506
0.00146413
-0.00605373
0.00174126
-0.00710846
0.00195699
-0.0079014
-0.00852079
3.29374e-05
-3.08128e-06
0.000167796
-0.000655934
0.000429155
-0.00187657
0.000781459
-0.00347401
0.00114439
-0.005058
0.00145943
-0.00636876
0.00170847
-0.00735751
0.00189972
-0.00809265
0.00205117
-0.00867224
-0.00917867
3.75203e-05
-4.06016e-05
0.000185096
-0.000803509
0.000459854
-0.00215133
0.000811254
-0.00382541
0.00115624
-0.00540298
0.00144489
-0.00665741
0.00166745
-0.00758007
0.00183659
-0.00826179
0.00197119
-0.00880685
0.00208709
-0.00929457
-0.00977225
4.23534e-05
-8.29551e-05
0.000202485
-0.000963641
0.000488037
-0.00243688
0.000834348
-0.00417172
0.00115911
-0.00572775
0.00142163
-0.00691993
0.00161953
-0.00777797
0.00176878
-0.00841104
0.00188842
-0.00892648
0.00199288
-0.00939903
0.00209106
-0.00987044
-0.0103621
4.74162e-05
-0.000130371
0.000219666
-0.00113589
0.000513088
-0.0027303
0.000850603
-0.00450923
0.00115366
-0.0060308
0.00139077
-0.00715704
0.00156589
-0.00795309
0.0016973
-0.00854245
0.00180354
-0.00903272
0.00189753
-0.00949302
0.00198666
-0.00995957
0.00207386
-0.0104493
-0.0109634
5.26795e-05
-0.000183051
0.000236319
-0.00131953
0.000534501
-0.00302848
0.000860091
-0.00483482
0.0011406
-0.0063113
0.00135337
-0.00736981
0.00150759
-0.00810731
0.00162296
-0.00865782
0.00171711
-0.00912686
0.00180137
-0.00957728
0.00188179
-0.01004
0.0019606
-0.0105282
0.00203974
-0.0110425
-0.011598
0.00211692
5.81026e-05
-0.000241153
0.000252126
-0.00151355
0.000551907
-0.00332826
0.000863049
-0.00514597
0.00112071
-0.00656897
0.0013104
-0.00755951
0.00144553
-0.00824244
0.00154645
-0.00875874
0.00162954
-0.00920996
0.00170463
-0.00965237
0.00177658
-0.0101119
0.00184708
-0.0105987
0.00191764
-0.0111131
-0.0116666
0.00198622
6.3631e-05
-0.000304784
0.000266775
-0.0017167
0.000565076
-0.00362657
0.000859836
-0.00544072
0.00109478
-0.00680391
0.00126278
-0.0077275
0.00138049
-0.00836016
0.0014683
-0.00884655
0.00154119
-0.00928286
0.00160752
-0.00971869
0.00167116
-0.0101756
0.00173338
-0.0106609
0.00179537
-0.0111751
-0.0117265
0.0018553
6.91955e-05
-0.00037398
0.000279983
-0.00192749
0.000573912
-0.00392049
0.000850892
-0.0057177
0.00106356
-0.00701658
0.00121129
-0.00787523
0.00131312
-0.00846198
0.00138897
-0.0089224
0.00145232
-0.00934621
0.00151019
-0.00977656
0.00156563
-0.010231
0.00161958
-0.0107148
0.00167299
-0.0112285
-0.0117777
0.00172424
7.47144e-05
-0.000448694
0.000291498
-0.00214427
0.000578435
-0.00420743
0.000836705
-0.00597597
0.00102779
-0.00720766
0.00115665
-0.0080041
0.00124396
-0.0085493
0.00130881
-0.00898724
0.00136313
-0.00940053
0.00141275
-0.00982619
0.00146006
-0.0102783
0.00150576
-0.0107605
0.00155059
-0.0112733
-0.0118203
0.00159311
8.00971e-05
-0.000528791
0.00030111
-0.00236528
0.000578764
-0.00448509
0.000817787
-0.006215
0.000988122
-0.007378
0.00109949
-0.00811546
0.00117349
-0.0086233
0.0012281
-0.00904185
0.00127379
-0.00944622
0.00131533
-0.00986772
0.00135455
-0.0103175
0.00139198
-0.010798
0.00142823
-0.0113096
-0.011854
0.00146199
8.52487e-05
-0.00061404
0.000308657
-0.00258869
0.000575094
-0.00475152
0.000794653
-0.00643456
0.000945183
-0.00752853
0.00104032
-0.0082106
0.00110207
-0.00868504
0.0011471
-0.00908688
0.00118445
-0.00948357
0.001218
-0.00990127
0.00124916
-0.0103487
0.00127834
-0.0108271
0.00130598
-0.0113372
-0.011879
0.00133096
9.00751e-05
-0.000704115
0.000314029
-0.00281264
0.000567668
-0.00500516
0.000767803
-0.00663469
0.000899528
-0.00766025
0.000979632
-0.00829071
0.00103002
-0.00873543
0.00106597
-0.00912282
0.0010952
-0.00951281
0.00112085
-0.00992691
0.00114396
-0.0103718
0.00116488
-0.0108481
0.00118393
-0.0113563
-0.0118952
0.00120011
9.44869e-05
-0.000798602
0.000317169
-0.00303533
0.00055677
-0.00524476
0.00073772
-0.00681564
0.000851654
-0.00777419
0.000917802
-0.00835685
0.000957604
-0.00877524
0.000984876
-0.0091501
0.00100616
-0.0095341
0.00102395
-0.0099447
0.00103904
-0.0103869
0.00105169
-0.0108607
0.00106215
-0.0113667
-0.0119026
0.00106952
9.84018e-05
-0.000897004
0.000318067
-0.00325499
0.000542699
-0.0054694
0.000704857
-0.0069778
0.000802002
-0.00787133
0.000855167
-0.00841002
0.000885027
-0.0088051
0.000903946
-0.00916902
0.000917409
-0.00954756
0.000927374
-0.00995467
0.000934445
-0.010394
0.000938835
-0.0108651
0.000940704
-0.0113686
-0.0119011
0.000939282
0.000101747
-0.000998751
0.000316757
-0.00347
0.000525764
-0.0056784
0.000669635
-0.00712167
0.000750962
-0.00795266
0.000792011
-0.00845107
0.000812468
-0.00882555
0.000823285
-0.00917983
0.000829014
-0.00955329
0.000831187
-0.00995684
0.000830252
-0.010393
0.000826385
-0.0108612
0.000819677
-0.0113619
-0.0118909
0.000809473
0.000104461
-0.00110321
0.000313311
-0.00367885
0.000506273
-0.00587136
0.000632438
-0.00724784
0.000698869
-0.00801909
0.000728569
-0.00848077
0.000740069
-0.00883705
0.000742981
-0.00918274
0.000741045
-0.00955135
0.000735449
-0.00995124
0.00072652
-0.0103841
0.000714404
-0.0108491
0.000699136
-0.0113466
-0.011872
0.000680178
0.000106492
-0.0012097
0.000307832
-0.00388019
0.000484526
-0.00604806
0.000593621
-0.00735693
0.000646023
-0.00807149
0.000665046
-0.00849979
0.00066796
-0.00883997
0.00066312
-0.00917791
0.000653574
-0.00954181
0.00064023
-0.0099379
0.000623323
-0.0103672
0.00060297
-0.0108288
0.000579181
-0.0113228
-0.0118443
0.000551486
0.000107802
-0.00131751
0.000300444
-0.00407283
0.000460811
-0.00620843
0.0005535
-0.00744962
0.000592678
-0.00811067
0.000601609
-0.00850872
0.000596239
-0.0088346
0.000583769
-0.00916544
0.000566657
-0.00952469
0.000545587
-0.00991683
0.000520718
-0.0103423
0.000492139
-0.0108002
0.000459876
-0.0112906
-0.0118079
0.000423461
0.000108364
-0.00142587
0.000291285
-0.00425576
0.000435399
-0.00635254
0.000512359
-0.00752658
0.000539054
-0.00813737
0.0005384
-0.00850807
0.000524995
-0.00882119
0.000504992
-0.00914543
0.000480352
-0.00950005
0.000451581
-0.00988806
0.000418774
-0.0103095
0.000381983
-0.0107634
0.000341264
-0.0112499
-0.0117628
0.000296166
0.000108167
-0.00153404
0.000280507
-0.0044281
0.000408545
-0.00648058
0.000470453
-0.00758849
0.000485341
-0.00815225
0.000475538
-0.00849826
0.000454303
-0.00879996
0.000426846
-0.00911798
0.000394714
-0.00946792
0.000358269
-0.00985161
0.000317554
-0.0102688
0.000272599
-0.0107184
0.000223393
-0.0112007
-0.0117089
0.000169558
0.00010721
-0.00164125
0.000268276
-0.00458916
0.000380487
-0.00659279
0.000428006
-0.00763601
0.000431702
-0.00815595
0.000413127
-0.00847969
0.000384229
-0.00877106
0.000349385
-0.00908313
0.000309796
-0.00942833
0.000265705
-0.00980752
0.000217112
-0.0102202
0.000164085
-0.0106654
0.00010646
-0.011143
-0.0116457
4.32182e-05
0.000105508
-0.00174675
0.000254756
-0.00473841
0.000351447
-0.00668948
0.000385217
-0.00766978
0.000378277
-0.00814901
0.000351252
-0.00845266
0.000314832
-0.00873464
0.000272659
-0.00904096
0.000225649
-0.00938132
0.000173949
-0.00975582
0.000117495
-0.0101638
5.63207e-05
-0.0106042
-8.67003e-06
-0.011078
-0.0115732
-8.11505e-05
0.000103084
-0.00184984
0.000240103
-0.00487543
0.000321625
-0.006771
0.000342262
-0.00769041
0.000325185
-0.00813193
0.000289988
-0.00841746
0.000246163
-0.00869081
0.000196715
-0.00899151
0.00014232
-0.00932693
8.30514e-05
-0.00969655
1.87433e-05
-0.0100995
-5.0411e-05
-0.0105351
-0.000124535
-0.0110039
-0.0114935
-0.000204286
9.99737e-05
-0.00194981
0.000224465
-0.00499992
0.000291204
-0.00683774
0.000299294
-0.0076985
0.000272529
-0.00810517
0.000229397
-0.00837433
0.000178271
-0.00863969
0.000121597
-0.00893484
5.98352e-05
-0.00926517
-7.08715e-06
-0.00962963
-7.88959e-05
-0.0100277
-0.000155867
-0.0104581
-0.000238512
-0.0109213
-0.0114055
-0.000326487
9.62187e-05
-0.00204603
0.000207986
-0.00511169
0.000260352
-0.00689011
0.000256448
-0.0076946
0.000220397
-0.00806912
0.000169535
-0.00832347
0.000111196
-0.00858135
4.73185e-05
-0.00887096
-2.17617e-05
-0.00919609
-9.58899e-05
-0.0095555
-0.000175516
-0.00994803
-0.000260433
-0.0103732
-0.000351228
-0.0108305
-0.0113092
-0.000447547
9.18676e-05
-0.0021379
0.000190801
-0.00521062
0.000229217
-0.00692852
0.00021384
-0.00767922
0.00016886
-0.00802414
0.000110451
-0.00826506
4.4946e-05
-0.00851584
-2.60421e-05
-0.00879997
-0.000102192
-0.00911994
-0.00018383
-0.00947386
-0.000271063
-0.0098608
-0.000363871
-0.0102804
-0.000462705
-0.0107316
-0.0112046
-0.000567321
8.6973e-05
-0.00222487
0.000173039
-0.00529669
0.000197935
-0.00695342
0.000171573
-0.00765286
0.000117978
-0.00797054
5.21791e-05
-0.00819926
-2.04329e-05
-0.00844323
-9.83024e-05
-0.0087221
-0.000181694
-0.00903654
-0.000270696
-0.00938486
-0.000365471
-0.00976602
-0.000466089
-0.0101798
-0.000572904
-0.0106248
-0.0110917
-0.000685731
8.15907e-05
-0.00230646
0.000154819
-0.00536992
0.000166627
-0.00696522
0.000129734
-0.00761597
6.78017e-05
-0.00790861
-5.44937e-06
-0.00812601
-8.46615e-05
-0.00836402
-0.000169622
-0.00863714
-0.000260144
-0.00894602
-0.00035643
-0.00928858
-0.000458678
-0.00966377
-0.00056702
-0.0100714
-0.000681758
-0.0105101
-0.0109708
-0.000802699
7.57776e-05
-0.00238224
0.000136255
-0.00543039
0.000135403
-0.00696437
8.83963e-05
-0.00756896
1.8282e-05
-0.00783849
-6.16627e-05
-0.00804607
-0.000148001
-0.00827768
-0.000239911
-0.00854523
-0.000337487
-0.00884845
-0.000440981
-0.00918508
-0.000550624
-0.00955413
-0.000666603
-0.00995544
-0.0007892
-0.0103875
-0.0108418
-0.000918155
6.9591e-05
-0.00245183
0.000117452
-0.00547825
0.000104356
-0.00695128
4.76461e-05
-0.00751225
-3.01921e-05
-0.00776066
-0.000117187
-0.00795907
-0.000210344
-0.00818452
-0.000309125
-0.00844645
-0.00041368
-0.00874389
-0.000524299
-0.00907446
-0.000641253
-0.00943718
-0.000764779
-0.00983191
-0.00089516
-0.0102571
-0.010705
-0.00103203
6.30868e-05
-0.00251492
9.85096e-05
-0.00551368
7.35719e-05
-0.00692634
7.52943e-06
-0.00744621
-7.77817e-05
-0.00767535
-0.000171754
-0.0078651
-0.00027165
-0.00808463
-0.000377223
-0.00834088
-0.000488677
-0.00863244
-0.000606338
-0.0089568
-0.000730509
-0.009313
-0.000861488
-0.00970094
-0.000999572
-0.010119
-0.0105603
-0.00114425
5.63187e-05
-0.00257124
7.95261e-05
-0.00553688
4.31245e-05
-0.00688994
-3.18827e-05
-0.0073712
-0.000124568
-0.00758266
-0.000225329
-0.00776434
-0.000331885
-0.00797807
-0.000444169
-0.00822859
-0.000562439
-0.00851417
-0.000687049
-0.00883219
-0.00081834
-0.00918171
-0.000956671
-0.00956261
-0.00110237
-0.00997333
-0.0104079
-0.00125476
4.93403e-05
-0.00262058
6.05974e-05
-0.00554814
1.30854e-05
-0.00684242
-7.05751e-05
-0.00728754
-0.000170457
-0.00748278
-0.000277883
-0.00765691
-0.000391016
-0.00786494
-0.000509927
-0.00810968
-0.000634923
-0.00838917
-0.000766388
-0.00870073
-0.000904694
-0.00904341
-0.00105027
-0.00941703
-0.00120349
-0.00982011
-0.0102479
-0.00136349
4.22108e-05
-0.00266279
4.18287e-05
-0.00554776
-1.64855e-05
-0.00678411
-0.000108509
-0.00719552
-0.00021541
-0.00737588
-0.000329393
-0.00754293
-0.000449014
-0.00774532
-0.000574463
-0.00798423
-0.000706091
-0.00825754
-0.00084431
-0.00856251
-0.000989522
-0.00889819
-0.00114223
-0.00926433
-0.00130287
-0.00965946
-0.0100804
-0.00147037
3.49919e-05
-0.00269778
2.34018e-05
-0.00553617
-4.54799e-05
-0.00671523
-0.00014566
-0.00709534
-0.000259405
-0.00726213
-0.000379834
-0.0074225
-0.00050585
-0.0076193
-0.000637742
-0.00785234
-0.000775904
-0.00811938
-0.000920773
-0.00841764
-0.00107277
-0.00874619
-0.00123248
-0.00910462
-0.00140044
-0.0094915
-0.00990549
-0.00157534
2.77113e-05
-0.00272549
5.91694e-06
-0.00551438
-7.38773e-05
-0.00663543
-0.000182017
-0.0069872
-0.000302424
-0.00714172
-0.000429184
-0.00729574
-0.000561497
-0.00748699
-0.000699733
-0.00771411
-0.000844326
-0.00797479
-0.000995736
-0.00826623
-0.00115441
-0.00858752
-0.00132099
-0.00893803
-0.00149615
-0.00931635
-0.00972331
-0.00167834
2.03179e-05
-0.00274581
-1.32103e-05
-0.00548085
-0.000101792
-0.00654685
-0.000217535
-0.00687146
-0.000344446
-0.00701481
-0.000477419
-0.00716277
-0.000615926
-0.00734848
-0.000760402
-0.00756963
-0.000911321
-0.00782387
-0.00106916
-0.00810839
-0.00123438
-0.0084223
-0.00140771
-0.0087647
-0.00158995
-0.00913411
-0.00953397
-0.00177929
1.28823e-05
-0.00275869
-3.21773e-05
-0.00543579
-0.000129165
-0.00644987
-0.000252181
-0.00674844
-0.000385449
-0.00688155
-0.00052452
-0.0070237
-0.000669111
-0.00720389
-0.000819719
-0.00741902
-0.000976851
-0.00766674
-0.001141
-0.00794424
-0.00131265
-0.00825065
-0.00149261
-0.00858475
-0.0016818
-0.00894492
-0.00933773
-0.00187803
5.54103e-06
-0.00276423
-5.03284e-05
-0.00537992
-0.00015591
-0.00634428
-0.000285938
-0.00661841
-0.000425411
-0.00674207
-0.000570464
-0.00687865
-0.000721027
-0.00705333
-0.000877653
-0.0072624
-0.00104088
-0.00750351
-0.00121123
-0.00777389
-0.00138918
-0.00807269
-0.00157563
-0.0083983
-0.00177161
-0.00874894
-0.00913488
-0.00197446
-1.6582e-06
-0.00276257
-6.79461e-05
-0.00531363
-0.000181982
-0.00623025
-0.000318791
-0.0064816
-0.000464317
-0.00659655
-0.00061523
-0.00672773
-0.000771648
-0.00689691
-0.000934174
-0.00709987
-0.00110338
-0.0073343
-0.0012798
-0.00759748
-0.00146393
-0.00788856
-0.00165676
-0.00820547
-0.00185934
-0.00854636
-0.00892537
-0.00206885
-9.37682e-06
-0.0027532
-8.51215e-05
-0.00523789
-0.000207346
-0.00610802
-0.000350722
-0.00633823
-0.00050215
-0.00644512
-0.000658799
-0.00657108
-0.00082095
-0.00673476
-0.000989252
-0.00693157
-0.00116431
-0.00715924
-0.00134667
-0.00741512
-0.0015369
-0.00769833
-0.00173602
-0.00800635
-0.00194496
-0.00833742
-0.00870934
-0.00216099
-1.67229e-05
-0.00273647
-0.000101853
-0.00515276
-0.000231978
-0.0059779
-0.000381716
-0.00618849
-0.000538896
-0.00628794
-0.000701152
-0.00640883
-0.000868907
-0.006567
-0.00104286
-0.00675762
-0.00122364
-0.00697846
-0.00141181
-0.00722695
-0.00160807
-0.00750208
-0.00181349
-0.00780093
-0.00202819
-0.00812272
-0.00848861
-0.00224892
-2.38902e-05
-0.00271258
-0.00011813
-0.00505852
-0.000255865
-0.00584016
-0.00041176
-0.00603259
-0.00057454
-0.00612516
-0.00074227
-0.0062411
-0.000915498
-0.00639378
-0.00109496
-0.00657816
-0.00128132
-0.0067921
-0.00147519
-0.00703307
-0.00167739
-0.00729987
-0.00188899
-0.00758933
-0.00211011
-0.0079016
-0.00826715
-0.00233157
-3.08938e-05
-0.00268169
-0.000133941
-0.00495547
-0.000278994
-0.00569511
-0.000440842
-0.00587075
-0.00060907
-0.00595693
-0.000782136
-0.00606803
-0.000960699
-0.00621521
-0.00114553
-0.00639333
-0.00133733
-0.0066003
-0.00153677
-0.00683364
-0.00174474
-0.0070919
-0.00196171
-0.00737236
-0.00218462
-0.0076787
-0.00802274
-0.00242903
-3.77296e-05
-0.00264396
-0.000149271
-0.00484393
-0.000301352
-0.00554303
-0.000468952
-0.00570315
-0.000642473
-0.00578341
-0.000820732
-0.00588977
-0.00100449
-0.00603146
-0.00119455
-0.00620327
-0.00139164
-0.00640321
-0.0015965
-0.00662878
-0.00180995
-0.00687845
-0.00203198
-0.00715033
-0.00226208
-0.00744859
-0.00777354
-0.00251128
-4.43878e-05
-0.00259957
-0.000164108
-0.00472421
-0.000322931
-0.00538421
-0.000496082
-0.00553
-0.000674736
-0.00560475
-0.000858041
-0.00570647
-0.00104684
-0.00584266
-0.00124198
-0.00600813
-0.00144422
-0.00620096
-0.00165434
-0.00641866
-0.00187311
-0.00665968
-0.00210062
-0.00692282
-0.00233786
-0.00721135
-0.0075205
-0.0025909
-5.08571e-05
-0.00254871
-0.00017844
-0.00459662
-0.000343723
-0.00521892
-0.000522223
-0.0053515
-0.00070585
-0.00542113
-0.000894048
-0.00551827
-0.00108774
-0.00564897
-0.0012878
-0.00580807
-0.00149503
-0.00599373
-0.00171025
-0.00620345
-0.00193415
-0.00643577
-0.00216705
-0.00668992
-0.00241041
-0.00696799
-0.00726319
-0.00266771
-5.71268e-05
-0.00249159
-0.000192254
-0.0044615
-0.000363721
-0.00504746
-0.000547369
-0.00516785
-0.000735803
-0.00523269
-0.000928736
-0.00532534
-0.00112716
-0.00545055
-0.00133198
-0.00560325
-0.00154405
-0.00578166
-0.00176418
-0.00598331
-0.00199309
-0.00620686
-0.00223126
-0.00645175
-0.00248022
-0.00671904
-0.00700148
-0.00274193
-6.31862e-05
-0.0024284
-0.000205541
-0.00431914
-0.000382918
-0.00487008
-0.000571512
-0.00497926
-0.000764585
-0.00503962
-0.000962092
-0.00512783
-0.00116509
-0.00524755
-0.00137451
-0.00539382
-0.00159125
-0.00556493
-0.00181612
-0.00575844
-0.00204987
-0.00597312
-0.00229312
-0.0062085
-0.00254729
-0.00646487
-0.00673522
-0.00281354
-6.90258e-05
-0.00235938
-0.000218292
-0.00416988
-0.00040131
-0.00468706
-0.000594647
-0.00478592
-0.000792187
-0.00484208
-0.000994101
-0.00492592
-0.0012015
-0.00504015
-0.00141536
-0.00517996
-0.00163659
-0.0053437
-0.00186603
-0.00552899
-0.00210445
-0.00573471
-0.00235257
-0.00596038
-0.00261167
-0.00620577
-0.00646438
-0.00288251
-7.46438e-05
-0.00228473
-0.000230499
-0.00401402
-0.000418891
-0.00449867
-0.000616769
-0.00458804
-0.000818598
-0.00464025
-0.00102475
-0.00471977
-0.00123638
-0.00482852
-0.0014545
-0.00496184
-0.00168005
-0.00511815
-0.00191389
-0.00529515
-0.0021568
-0.00549179
-0.00240958
-0.0057076
-0.00267338
-0.00594198
-0.00618897
-0.00294878
-8.00345e-05
-0.0022047
-0.000242156
-0.0038519
-0.000435656
-0.00430517
-0.000637871
-0.00438583
-0.000843811
-0.00443431
-0.00105402
-0.00450955
-0.00126971
-0.00461283
-0.00149192
-0.00473963
-0.00172161
-0.00488847
-0.00195966
-0.0050571
-0.00220688
-0.00524457
-0.00246411
-0.00545037
-0.0027324
-0.00567368
-0.00590909
-0.00301228
-8.51898e-05
-0.00211951
-0.000253258
-0.00368383
-0.000451604
-0.00410682
-0.000657949
-0.00417948
-0.000867817
-0.00422444
-0.00108191
-0.00429546
-0.00130148
-0.00439326
-0.00152759
-0.00451352
-0.00176123
-0.00465483
-0.00200331
-0.00481502
-0.00225466
-0.00499322
-0.00251613
-0.00518889
-0.00278873
-0.00540109
-0.00562487
-0.00307295
-9.0103e-05
-0.0020294
-0.000263799
-0.00351013
-0.000466729
-0.00390389
-0.000676998
-0.00396921
-0.000890608
-0.00401083
-0.0011084
-0.00407767
-0.00133167
-0.00416999
-0.0015615
-0.00428369
-0.00179891
-0.00441742
-0.00204483
-0.0045691
-0.00230011
-0.00473794
-0.00256562
-0.00492338
-0.00284232
-0.00512438
-0.00533646
-0.00313073
-9.47682e-05
-0.00193464
-0.000273775
-0.00333113
-0.00048103
-0.00369664
-0.000695015
-0.00375523
-0.000912176
-0.00379367
-0.00113348
-0.00385636
-0.00136026
-0.00394322
-0.00159362
-0.00405033
-0.00183462
-0.00417642
-0.00208418
-0.00431954
-0.00234319
-0.00447893
-0.00261254
-0.00465404
-0.00289315
-0.00484377
-0.00504404
-0.00318557
-9.91802e-05
-0.00183546
-0.000283181
-0.00314713
-0.000494503
-0.00348532
-0.000711995
-0.00353773
-0.000932515
-0.00357315
-0.00115714
-0.00363174
-0.00138724
-0.00371312
-0.00162395
-0.00381362
-0.00186832
-0.00393204
-0.00212134
-0.00406653
-0.00238388
-0.00421638
-0.00265686
-0.00438106
-0.00294119
-0.00455943
-0.00474781
-0.00323742
-0.000103335
-0.00173212
-0.000292015
-0.00295845
-0.000507146
-0.00327019
-0.000727935
-0.00331695
-0.000951618
-0.00334947
-0.00117937
-0.00340398
-0.0014126
-0.0034799
-0.00165245
-0.00357377
-0.00190002
-0.00368447
-0.00215628
-0.00381027
-0.00242216
-0.0039505
-0.00269855
-0.00410467
-0.00298639
-0.0042716
-0.00444796
-0.00328624
-0.000107228
-0.00162489
-0.000300272
-0.0027654
-0.000518957
-0.0030515
-0.000742831
-0.00309307
-0.000969479
-0.00312282
-0.00120017
-0.00317329
-0.00143632
-0.00324375
-0.00167912
-0.00333096
-0.00192968
-0.00343392
-0.00218899
-0.00355096
-0.00245799
-0.0036815
-0.0027376
-0.00382506
-0.00302873
-0.00398046
-0.00414471
-0.00333199
-0.000110856
-0.00151404
-0.000307951
-0.00256831
-0.000529935
-0.00282952
-0.000756679
-0.00286633
-0.000986092
-0.00289341
-0.00121952
-0.00293987
-0.0014584
-0.00300487
-0.00170395
-0.00308542
-0.00195729
-0.00318057
-0.00221944
-0.00328881
-0.00249136
-0.00340959
-0.00277396
-0.00354245
-0.00306818
-0.00368624
-0.00383827
-0.00337461
-0.000114216
-0.00139982
-0.000315048
-0.00236747
-0.000540077
-0.00260449
-0.000769478
-0.00263693
-0.00100145
-0.00266143
-0.00123741
-0.00270391
-0.00147882
-0.00276346
-0.00172691
-0.00283732
-0.00198283
-0.00292465
-0.00224762
-0.00302402
-0.00252223
-0.00313497
-0.00280762
-0.00325706
-0.0031047
-0.00338917
-0.00352889
-0.00341409
-0.000117305
-0.00128252
-0.000321563
-0.00216322
-0.000549382
-0.00237667
-0.000781225
-0.00240508
-0.00101555
-0.0024271
-0.00125384
-0.00246563
-0.00149757
-0.00251972
-0.001748
-0.00258689
-0.0020063
-0.00266635
-0.0022735
-0.00275682
-0.0025506
-0.00285788
-0.00283855
-0.00296911
-0.00313826
-0.00308945
-0.00321677
-0.00345038
-0.000120122
-0.00116239
-0.000327492
-0.00195585
-0.000557848
-0.00214631
-0.000791916
-0.00217102
-0.0010284
-0.00219062
-0.00126881
-0.00222521
-0.00151466
-0.00227387
-0.00176722
-0.00233434
-0.00202767
-0.0024059
-0.00229707
-0.00248742
-0.00257643
-0.00257852
-0.00286672
-0.00267882
-0.00316884
-0.00278732
-0.00290216
-0.00348345
-0.000122663
-0.00103973
-0.000332835
-0.00174567
-0.000565475
-0.00191367
-0.00080155
-0.00193494
-0.00103997
-0.0019522
-0.0012823
-0.00198288
-0.00153007
-0.00202611
-0.00178454
-0.00207986
-0.00204693
-0.00214351
-0.00231832
-0.00221604
-0.00259971
-0.00229712
-0.00289211
-0.00238642
-0.00319641
-0.00248302
-0.0025853
-0.00351327
-0.000124927
-0.000914805
-0.00033759
-0.00153301
-0.000572261
-0.001679
-0.000810125
-0.00169708
-0.00105028
-0.00171205
-0.00129432
-0.00173884
-0.00154379
-0.00177664
-0.00179997
-0.00182367
-0.00206409
-0.00187939
-0.00233723
-0.0019429
-0.00262043
-0.00201392
-0.0029147
-0.00209216
-0.00322093
-0.00217679
-0.00226643
-0.00353981
-0.000126912
-0.000787893
-0.000341755
-0.00131817
-0.000578205
-0.00144255
-0.000817638
-0.00145764
-0.00105931
-0.00147037
-0.00130486
-0.0014933
-0.00155582
-0.00152567
-0.00181351
-0.00156599
-0.00207914
-0.00161376
-0.00235381
-0.00166823
-0.00263859
-0.00172914
-0.00293448
-0.00179626
-0.0032424
-0.00186887
-0.00194579
-0.00356303
-0.000128618
-0.000659275
-0.00034533
-0.00110145
-0.000583306
-0.00120458
-0.000824088
-0.00121686
-0.00106707
-0.00122739
-0.00131391
-0.00124646
-0.00156616
-0.00127342
-0.00182514
-0.00130701
-0.00209207
-0.00134684
-0.00236805
-0.00139224
-0.00265417
-0.00144303
-0.00295144
-0.00149899
-0.00326079
-0.00155952
-0.00162366
-0.00358292
-0.000130042
-0.000529234
-0.000348313
-0.000883184
-0.000587563
-0.000965326
-0.000829472
-0.000974952
-0.00107355
-0.000983312
-0.00132148
-0.000998532
-0.00157481
-0.00102009
-0.00183487
-0.00104696
-0.00210288
-0.00107882
-0.00237996
-0.00111516
-0.00266719
-0.0011558
-0.00296559
-0.00120059
-0.00327611
-0.001249
-0.00130031
-0.00359946
-0.000131183
-0.000398051
-0.000350703
-0.000663664
-0.000590974
-0.000725055
-0.00083379
-0.000732137
-0.00107875
-0.000738352
-0.00132755
-0.000749733
-0.00158176
-0.00076588
-0.00184269
-0.000786024
-0.00211158
-0.000809927
-0.00238955
-0.00083719
-0.00267766
-0.000867692
-0.00297696
-0.000901291
-0.00328837
-0.000937594
-0.000976034
-0.00361264
-0.000132042
-0.000266009
-0.0003525
-0.000443205
-0.000593539
-0.000484016
-0.000837038
-0.000488638
-0.00108267
-0.000492725
-0.00133213
-0.000500272
-0.001587
-0.00051101
-0.0018486
-0.000524425
-0.00211817
-0.000540357
-0.00239681
-0.000558541
-0.00268561
-0.000578895
-0.00298558
-0.000601321
-0.00329763
-0.000625543
-0.000651149
-0.00362252
-0.000132616
-0.000133392
-0.000353703
-0.000222119
-0.000595257
-0.000242461
-0.000839216
-0.00024468
-0.00108529
-0.000246648
-0.0013352
-0.000250363
-0.00159052
-0.000255688
-0.00185258
-0.000262366
-0.00212262
-0.000270317
-0.00240175
-0.000279408
-0.00269105
-0.000289602
-0.00299152
-0.000300851
-0.00330404
-0.000313026
-0.000325916
-0.00362927
-0.000132907
-4.85785e-07
-0.000354311
-7.13993e-07
-0.000596127
-6.45413e-07
-0.00084032
-4.86448e-07
-0.00108663
-3.39089e-07
-0.00133677
-2.1966e-07
-0.00159233
-1.27862e-07
-0.00185464
-6.12586e-08
-0.00212494
-1.83634e-08
-0.00240435
2.35585e-09
-0.00269395
1.05489e-10
-0.00299477
-2.84672e-08
-0.00330771
-8.53376e-08
-2.08851e-07
-0.00363342
-0.000132912
0.000132426
-0.000354324
0.000220698
-0.000596148
0.000241179
-0.000840352
0.000243717
-0.00108667
0.000245982
-0.00133683
0.00024994
-0.00159241
0.000255453
-0.00185475
0.000262271
-0.00212508
0.000270317
-0.00240454
0.000279466
-0.00269423
0.000289682
-0.00299518
0.000300928
-0.00330835
0.000313085
0.000325997
-0.00363456
-0.000132633
0.000265059
-0.000353741
0.000441806
-0.00059532
0.000482757
-0.000839308
0.000487705
-0.00108542
0.000492096
-0.00133538
0.000499897
-0.00159076
0.000510835
-0.0018529
0.000524406
-0.00212303
0.000540457
-0.0024023
0.000558733
-0.00269178
0.000579163
-0.00299252
0.000601668
-0.00330544
0.000625999
0.000651767
-0.00363121
-0.000132069
0.000397128
-0.000352563
0.0006623
-0.000593641
0.000723836
-0.000837188
0.000731251
-0.00108287
0.000737783
-0.00133241
0.000749431
-0.00158737
0.000765795
-0.00184908
0.000786117
-0.00211879
0.000810166
-0.00239761
0.000837554
-0.00268662
0.000868173
-0.00298684
0.000901893
-0.00329918
0.000938334
0.000976907
-0.00362432
-0.00013122
0.000528348
-0.000350789
0.000881869
-0.000591113
0.00096416
-0.000833992
0.00097413
-0.00107903
0.000982822
-0.00132792
0.000998323
-0.00158224
0.00102011
-0.0018433
0.00104718
-0.00211235
0.00107921
-0.00239048
0.00111569
-0.00267877
0.00115646
-0.00297823
0.00120136
-0.00328976
0.00124987
0.00130122
-0.00361408
-0.000130088
0.000658436
-0.000348419
0.0011002
-0.000587735
0.00120348
-0.000829721
0.00121612
-0.00107389
0.00122699
-0.00132192
0.00124635
-0.00157538
0.00127357
-0.00183556
0.00130737
-0.00210371
0.00134736
-0.00238093
0.0013929
-0.00266826
0.00144379
-0.00296673
0.00149983
-0.00327725
0.00156038
0.00162449
-0.00360052
-0.000128672
0.000787108
-0.000345454
0.00131698
-0.000583507
0.00144153
-0.000824376
0.00145699
-0.00106746
0.00147008
-0.00131441
0.00149331
-0.00156678
0.00152594
-0.00182588
0.00156646
-0.00209291
0.00161439
-0.00236898
0.00166897
-0.00265514
0.00172995
-0.00295239
0.00179709
-0.00326167
0.00186966
0.0019465
-0.00358368
-0.000126973
0.000914081
-0.000341896
0.00153191
-0.00057843
0.00167806
-0.000817957
0.00169651
-0.00105974
0.00171185
-0.00130539
0.00173896
-0.00155646
0.00177701
-0.00181425
0.00182424
-0.00207995
0.00188009
-0.00235465
0.00194368
-0.00263941
0.00201471
-0.00293524
0.00209291
-0.00324306
0.00217748
0.002267
-0.00356356
-0.000124993
0.00103907
-0.000337743
0.00174466
-0.000572505
0.00191282
-0.000810466
0.00193447
-0.00105072
0.00195211
-0.00129487
0.00198311
-0.00154443
0.00202657
-0.00180069
0.00208049
-0.00206484
0.00214425
-0.00233797
0.00221681
-0.00262112
0.00229786
-0.00291529
0.00238709
-0.00322141
0.0024836
0.00258577
-0.00354018
-0.000122734
0.00116181
-0.000332999
0.00195492
-0.000565733
0.00214556
-0.000801907
0.00217065
-0.00104043
0.00219063
-0.00128285
0.00222553
-0.00153069
0.00227441
-0.00178521
0.00233501
-0.0020476
0.00240664
-0.00231895
0.00248815
-0.00260026
0.00257918
-0.00289256
0.00267938
-0.00319676
0.0027878
0.00290254
-0.00351353
-0.000120196
0.001282
-0.000327663
0.00216239
-0.000558116
0.00237601
-0.000792281
0.00240481
-0.00102886
0.00242721
-0.00126935
0.00246602
-0.00151525
0.00252032
-0.00176783
0.00258759
-0.00202825
0.00266707
-0.00229759
0.00275749
-0.00257687
0.00285845
-0.00286706
0.00296958
-0.0031691
0.00308984
0.00321709
-0.00348364
-0.000117381
0.00139938
-0.000321738
0.00236674
-0.000549654
0.00260393
-0.000781591
0.00263675
-0.00101601
0.00266162
-0.00125436
0.00270438
-0.00149813
0.00276408
-0.00174855
0.00283801
-0.0020068
0.00292532
-0.00227393
0.00302462
-0.00255094
0.00313546
-0.00283881
0.00325744
-0.00313846
0.00338948
0.00352916
-0.00345053
-0.000114292
0.00151368
-0.000315225
0.00256768
-0.00054035
0.00282905
-0.000769841
0.00286624
-0.00100189
0.00289367
-0.0012379
0.00294038
-0.00147932
0.00300551
-0.0017274
0.00308609
-0.00198326
0.00318119
-0.00224797
0.00328932
-0.0025225
0.00341
-0.00280782
0.00354276
-0.00310485
0.00368651
0.00383852
-0.00341421
-0.000110932
0.00162461
-0.000308127
0.00276487
-0.000530205
0.00305113
-0.000757033
0.00309307
-0.000986512
0.00312315
-0.00121997
0.00317384
-0.00145886
0.00324439
-0.00170437
0.0033316
-0.00195765
0.00343447
-0.00221973
0.0035514
-0.00249157