/*--------------------------------*- C++ -*----------------------------------*\
  =========                 |
  \\      /  F ield         | OpenFOAM: The Open Source CFD Toolbox
   \\    /   O peration     | Website:  https://openfoam.org
    \\  /    A nd           | Version:  7
     \\/     M anipulation  |
\*---------------------------------------------------------------------------*/
FoamFile
{
    version     2.0;
    format      ascii;
    class       volVectorField;
    location    "10";
    object      U;
}
// * * * * * * * * * * * * * * * * * * * * * * * * * * * * * * * * * * * * * //

dimensions      [0 1 -1 0 0 0 0];

internalField   nonuniform List<vector> 
8330
(
(-0.0200326 0.0281944 -2.93283e-19)
(-0.02097 0.0274568 4.13243e-19)
(-0.0219256 0.0267211 2.89691e-19)
(-0.0228913 0.0259928 -3.95967e-19)
(-0.0238518 0.0252686 -3.42515e-19)
(-0.0413997 0.0490533 -3.78841e-19)
(-0.0247833 0.0245372 3.4376e-19)
(-0.0408519 0.0461805 2.30399e-19)
(-0.0256526 0.0237813 -4.5532e-19)
(-0.0396929 0.0432051 3.46548e-19)
(-0.0264186 0.0229807 -3.76105e-20)
(-0.0377976 0.040129 -3.16879e-19)
(-0.0270403 0.0221201 1.63963e-19)
(-0.0350255 0.0369448 -2.06775e-19)
(-0.00213651 0.0393899 6.34711e-20)
(-0.0274736 0.0211803 -1.53104e-19)
(-0.0312307 0.0336427 3.15635e-19)
(0.010449 0.0349064 3.11898e-19)
(-0.0276632 0.020138 4.44199e-19)
(-0.0262663 0.0302204 -2.41604e-19)
(0.0255606 0.030565 3.13886e-19)
(0.128672 0.0280295 -5.29381e-20)
(-0.0275488 0.0189733 2.554e-19)
(-0.0199812 0.0266816 8.9628e-20)
(0.0434364 0.0264296 -7.33454e-19)
(0.163485 0.0251174 -3.15698e-20)
(-0.0270678 0.0176721 1.05622e-19)
(-0.01222 0.0230382 1.57443e-19)
(0.0643016 0.0225792 5.0271e-19)
(0.202854 0.023198 4.74309e-19)
(-0.0261547 0.0162262 -3.95505e-19)
(-0.00282624 0.0193139 5.21438e-19)
(0.088363 0.019113 -3.73538e-19)
(0.246789 0.0224819 -3.42965e-19)
(0.462766 0.0394547 -8.77875e-20)
(-0.0247424 0.0146343 6.33633e-19)
(0.00835621 0.0155471 -5.06662e-19)
(0.115801 0.0161566 3.61798e-19)
(0.295153 0.0231883 -9.00291e-20)
(0.529362 0.0460299 1.79319e-19)
(-0.0227623 0.0129027 -5.46968e-19)
(0.0214806 0.0117927 4.0984e-19)
(0.146755 0.0138652 5.66302e-20)
(0.347623 0.0255193 2.32899e-19)
(0.597574 0.0544439 -1.63033e-20)
(0.844506 0.0905246 7.67185e-20)
(-0.0201454 0.0110449 1.37123e-19)
(0.0366947 0.00812432 -6.8065e-19)
(0.181309 0.012425 -2.02336e-19)
(0.40368 0.0296296 1.5981e-19)
(0.666089 0.0645059 -1.59857e-19)
(0.90973 0.103252 -9.46557e-21)
(1.09583 0.134667 1.76749e-19)
(-0.016823 0.00908186 -2.55948e-19)
(0.0541374 0.0046358 6.03581e-19)
(0.219467 0.0120474 -2.32154e-19)
(0.462618 0.035599 -3.28622e-19)
(0.733636 0.0759738 3.44388e-20)
(0.97008 0.116439 -2.11227e-21)
(1.14026 0.146705 1.81729e-19)
(-0.0127273 0.00704187 1.86729e-19)
(0.0739333 0.0014425 1.28746e-19)
(0.26113 0.0129556 3.13619e-19)
(0.523579 0.0434201 3.59364e-19)
(0.799082 0.0885911 -4.42896e-20)
(1.02507 0.129872 7.33421e-20)
(1.17843 0.158437 -2.20297e-19)
(1.26659 0.172929 2.42627e-19)
(-0.00779203 0.00495976 -1.64785e-20)
(0.0961864 -0.00131738 -2.45003e-19)
(0.306082 0.0153639 -2.99017e-19)
(0.585617 0.0530049 -9.97269e-20)
(0.861493 0.102114 1.58968e-19)
(1.07448 0.143387 -3.49847e-20)
(1.21075 0.169811 -1.05433e-19)
(1.28397 0.181678 1.03e-19)
(1.3155 0.18266 3.70004e-19)
(-0.00195358 0.00287694 -1.11797e-19)
(0.12097 -0.00348279 -3.20504e-19)
(0.353978 0.0194529 3.60791e-19)
(0.647762 0.0642067 -9.46978e-20)
(0.920159 0.116327 1.1099e-20)
(1.11831 0.15686 7.89821e-21)
(1.23771 0.180809 2.71424e-20)
(1.29728 0.190029 -3.0311e-19)
(1.31979 0.188948 9.74957e-20)
(1.32294 0.181806 2.03044e-19)
(0.0048488 0.000841467 2.48196e-20)
(0.148318 -0.00487163 1.44046e-19)
(0.404352 0.025348 2.44855e-19)
(0.709093 0.0768472 -4.80879e-20)
(0.974589 0.131047 2.10207e-19)
(1.15672 0.170207 9.44117e-20)
(1.25984 0.191435 2.40193e-19)
(1.30713 0.198038 2.34145e-19)
(1.32198 0.195041 -2.81978e-19)
(1.32099 0.186732 -2.13864e-19)
(1.31348 0.175856 -2.45676e-19)
(0.012672 -0.00109152 3.77215e-20)
(0.17821 -0.00528593 6.15443e-20)
(0.45664 0.0331082 -6.21566e-19)
(0.76878 0.09074 2.1936e-19)
(1.02449 0.146127 -1.86188e-19)
(1.18995 0.18337 -9.63016e-20)
(1.27768 0.201708 -1.34154e-19)
(1.31406 0.205764 -7.95881e-20)
(1.32247 0.200996 -1.93249e-19)
(1.31817 0.19163 3.53493e-19)
(1.30915 0.180104 5.56074e-20)
(1.2991 0.16747 1.07585e-19)
(0.0215677 -0.00285904 4.94436e-20)
(0.210566 -0.00452066 -1.06663e-19)
(0.510205 0.0427266 2.12267e-19)
(0.826122 0.105707 -1.97482e-19)
(1.06972 0.161445 -2.80038e-19)
(1.21835 0.196314 -1.57777e-19)
(1.29174 0.211661 -2.26494e-19)
(1.31855 0.213262 1.11123e-19)
(1.32159 0.20686 7.22041e-20)
(1.31467 0.196529 -1.78108e-19)
(1.30449 0.184401 1.64098e-20)
(1.29394 0.171487 -8.58933e-20)
(1.28343 0.158987 5.6559e-20)
(0.0315812 -0.00438956 -2.24608e-19)
(0.245235 -0.00237616 1.6622e-19)
(0.564376 0.0541412 -1.32572e-19)
(0.880562 0.121585 2.34178e-20)
(1.11029 0.176907 3.82598e-19)
(1.24229 0.209025 1.11863e-19)
(1.3025 0.221329 3.80727e-19)
(1.321 0.220586 -1.58919e-19)
(1.31962 0.212675 2.5494e-20)
(1.31063 0.20145 1.94298e-19)
(1.29957 0.188751 -8.94735e-20)
(1.28863 0.175541 -1.2878e-20)
(1.27798 0.162611 -5.54546e-20)
(1.26858 0.147758 1.17474e-20)
(0.042748 -0.00560262 2.05301e-19)
(0.281998 0.00132793 2.68907e-20)
(0.618486 0.0672508 9.10391e-20)
(0.931679 0.138231 -9.0236e-20)
(1.14629 0.192438 -7.92024e-20)
(1.26216 0.221499 -1.37946e-19)
(1.31039 0.230754 9.97949e-20)
(1.32175 0.227781 1.46389e-19)
(1.31675 0.218472 -7.45223e-20)
(1.30614 0.206406 -8.88865e-20)
(1.29442 0.193154 8.94469e-20)
(1.28319 0.179627 4.20009e-20)
(1.27244 0.166261 -1.42531e-19)
(1.26291 0.151483 -7.80968e-20)
(0.055091 -0.00640907 1.00717e-19)
(0.320571 0.00673963 -1.91599e-19)
(0.671896 0.081931 2.43491e-19)
(0.979183 0.155519 7.2088e-20)
(1.17788 0.207979 -1.79175e-20)
(1.27833 0.233744 -1.18674e-19)
(1.31581 0.239976 -2.53141e-19)
(1.32107 0.234889 -1.80666e-19)
(1.31315 0.224273 1.78172e-19)
(1.30128 0.211404 -9.32314e-20)
(1.28907 0.197608 6.58116e-20)
(1.27761 0.183738 -8.73096e-20)
(1.2668 0.169929 9.38242e-20)
(1.25717 0.155198 -2.62678e-20)
(0.0686162 -0.00671235 -1.86673e-19)
(0.360612 0.0139652 -2.58256e-19)
(0.724022 0.0980458 2.77418e-20)
(1.02289 0.173341 4.46782e-20)
(1.20528 0.223485 9.81342e-20)
(1.29119 0.245771 -4.25844e-20)
(1.31909 0.249031 -3.91496e-20)
(1.31921 0.241941 1.80713e-19)
(1.30894 0.230094 1.01274e-20)
(1.29609 0.216446 -5.50048e-20)
(1.28351 0.202106 -6.03628e-20)
(1.2719 0.187866 3.12452e-20)
(1.26105 0.173608 1.04598e-19)
(1.25136 0.158897 6.18114e-20)
(0.0833095 -0.00641081 -8.96147e-22)
(0.401736 0.0230649 2.89264e-19)
(0.774348 0.115456 1.22409e-19)
(1.06272 0.191599 -1.41669e-19)
(1.22872 0.238921 9.38751e-20)
(1.30107 0.257597 7.95121e-20)
(1.32052 0.257953 6.59735e-20)
(1.31634 0.248962 -1.58493e-19)
(1.30419 0.235944 -7.90123e-20)
(1.29061 0.22153 6.37727e-20)
(1.27776 0.206639 7.78352e-21)
(1.26604 0.192001 -4.04898e-20)
(1.25519 0.177289 -5.40763e-20)
(1.24546 0.16257 -1.51848e-20)
(0.099133 -0.00540118 4.95111e-20)
(0.443532 0.0340539 -2.20237e-20)
(0.822436 0.134022 -2.40985e-19)
(1.09864 0.210208 -8.92291e-20)
(1.24847 0.254259 -2.02888e-19)
(1.30829 0.269238 5.16926e-20)
(1.32036 0.26677 2.44473e-20)
(1.31261 0.25597 5.9637e-20)
(1.29898 0.241825 -3.00876e-20)
(1.28485 0.226651 4.59166e-20)
(1.27181 0.211197 -1.83503e-20)
(1.26003 0.196133 2.33796e-20)
(1.24922 0.180963 -2.0639e-21)
(1.23946 0.166209 -3.4077e-20)
(0.116024 -0.00358283 8.75944e-20)
(0.485574 0.0469067 -1.53529e-19)
(0.867927 0.153611 1.82859e-20)
(1.13071 0.229088 1.22838e-19)
(1.26476 0.269478 1.64316e-19)
(1.31314 0.280712 -1.16972e-19)
(1.31881 0.275505 7.19106e-20)
(1.30813 0.262976 1.13944e-20)
(1.29335 0.247737 -3.35931e-20)
(1.27882 0.231798 -3.5953e-20)
(1.26567 0.215768 4.49257e-20)
(1.25386 0.200252 4.68318e-20)
(1.24312 0.184621 -1.40463e-20)
(1.23337 0.169805 3.54745e-20)
(0.133893 -0.000862383 7.43793e-20)
(0.527435 0.0615641 5.62364e-20)
(0.910539 0.174091 1.2023e-19)
(1.15899 0.248166 -4.81627e-20)
(1.27787 0.284561 -6.7355e-20)
(1.31586 0.292031 7.23462e-20)
(1.31604 0.284174 -7.85481e-20)
(1.30299 0.269984 -8.61829e-20)
(1.28734 0.253672 5.74666e-20)
(1.27253 0.236961 -3.74738e-20)
(1.25932 0.22034 -5.96197e-20)
(1.24754 0.204346 -4.77849e-20)
(1.23689 0.188252 3.32742e-20)
(1.22716 0.173348 -6.96112e-21)
(0.152628 0.0028418 -9.54994e-20)
(0.568701 0.0779397 4.44428e-20)
(0.950061 0.195337 -8.53621e-20)
(1.1836 0.267372 -1.86108e-20)
(1.28803 0.299491 7.80026e-20)
(1.31668 0.303206 4.8729e-21)
(1.3122 0.292786 -4.49137e-21)
(1.29724 0.276994 3.54441e-20)
(1.28095 0.259621 -3.7413e-20)
(1.26598 0.242126 3.96617e-20)
(1.25277 0.224898 3.17495e-20)
(1.24105 0.208404 3.60809e-20)
(1.23052 0.191845 -8.82079e-21)
(1.22084 0.176828 -7.25303e-21)
(0.172094 0.00759583 5.47455e-21)
(0.60898 0.0959259 2.87479e-20)
(0.986344 0.217227 -5.02535e-20)
(1.20467 0.28664 -1.17683e-20)
(1.29548 0.314253 -1.36549e-20)
(1.3158 0.314245 -9.26059e-21)
(1.3074 0.301347 -1.34602e-20)
(1.29095 0.283997 -2.8922e-20)
(1.2742 0.265569 1.62997e-20)
(1.25915 0.247278 1.89161e-20)
(1.246 0.229427 -3.57769e-21)
(1.23438 0.212412 -1.84353e-21)
(1.22402 0.195389 -2.3999e-20)
(1.21441 0.180234 1.23345e-20)
(0.192137 0.0134477 4.54968e-21)
(0.647909 0.115399 -1.14436e-20)
(1.01929 0.239646 2.84364e-20)
(1.22234 0.305904 1.96349e-20)
(1.30041 0.328832 -6.93045e-21)
(1.31339 0.325149 -1.28561e-21)
(1.30172 0.309852 9.44332e-21)
(1.28413 0.290984 1.4463e-21)
(1.26711 0.271501 -2.75862e-21)
(1.25206 0.252401 -1.22208e-20)
(1.23902 0.233911 -3.52653e-22)
(1.22754 0.216358 -7.97467e-22)
(1.21737 0.198873 9.09535e-21)
(1.20786 0.183555 4.47734e-21)
(0.212587 0.0204256 3.83284e-21)
(0.685157 0.136222 -8.9308e-21)
(1.04886 0.262478 2.62474e-20)
(1.23677 0.325103 1.92685e-20)
(1.30304 0.343211 -5.66451e-21)
(1.30958 0.335915 -1.64416e-21)
(1.29525 0.318296 7.62423e-21)
(1.27683 0.29794 2.3045e-21)
(1.25966 0.277398 -2.86401e-21)
(1.2447 0.257476 -1.06971e-20)
(1.23181 0.238335 3.04897e-23)
(1.22052 0.220229 -1.39939e-22)
(1.21057 0.202283 7.18448e-21)
(1.20119 0.18678 3.47819e-21)
(0.233264 0.0285382 -1.20449e-21)
(0.720434 0.158248 2.80213e-20)
(1.07503 0.285614 -4.72237e-20)
(1.24811 0.344174 -1.61575e-20)
(1.30354 0.357372 -3.78672e-21)
(1.30449 0.346537 -1.31185e-20)
(1.28803 0.326664 -1.36348e-20)
(1.26904 0.304844 -2.61498e-20)
(1.25186 0.283241 1.67708e-20)
(1.23705 0.262485 2.03335e-20)
(1.22437 0.242681 -6.7704e-21)
(1.21331 0.224011 -6.97406e-22)
(1.20361 0.205606 -1.57495e-20)
(1.1944 0.189899 5.87542e-21)
(0.253981 0.0377749 -9.83925e-20)
(0.753486 0.181324 4.94304e-20)
(1.09783 0.308945 -9.49804e-20)
(1.25652 0.363058 -1.25432e-20)
(1.30206 0.371293 8.7646e-20)
(1.29824 0.357001 -1.1049e-20)
(1.28012 0.33494 1.26348e-21)
(1.26079 0.311677 2.79643e-20)
(1.24371 0.289007 -2.54426e-20)
(1.22912 0.267408 2.54785e-20)
(1.2167 0.246931 2.56297e-20)
(1.20591 0.22769 2.23454e-20)
(1.19651 0.208826 -7.08734e-21)
(1.1875 0.192901 -9.34592e-21)
(0.274546 0.0481076 5.62411e-20)
(0.784101 0.205291 5.51769e-20)
(1.11729 0.332364 1.16294e-19)
(1.26214 0.381696 -2.25982e-20)
(1.29876 0.38495 -8.53698e-20)
(1.2909 0.367292 7.59098e-20)
(1.27154 0.343103 -6.50391e-20)
(1.25208 0.318414 -6.60222e-20)
(1.2352 0.294673 4.74009e-20)
(1.22091 0.272225 -3.15264e-20)
(1.20879 0.25107 -4.23411e-20)
(1.19832 0.231251 -3.53121e-20)
(1.18925 0.211927 2.30053e-20)
(1.18047 0.195771 -1.60123e-21)
(0.294768 0.0594927 7.05911e-20)
(0.812106 0.229987 -1.42437e-19)
(1.13348 0.355765 -2.25999e-21)
(1.26514 0.400031 1.2746e-19)
(1.29376 0.398317 1.27225e-19)
(1.28255 0.377387 -6.48846e-20)
(1.26234 0.351128 4.10993e-20)
(1.24292 0.325028 2.37651e-20)
(1.22635 0.300215 -3.07259e-20)
(1.21241 0.276913 -2.44931e-20)
(1.20065 0.255079 2.6203e-20)
(1.19053 0.234679 2.80693e-20)
(1.18184 0.214898 -1.15003e-20)
(1.17329 0.198493 1.59386e-20)
(0.314458 0.0718726 5.97092e-20)
(0.837365 0.255246 -2.6097e-20)
(1.14648 0.379042 -2.21128e-19)
(1.26565 0.418005 -8.07834e-20)
(1.28718 0.411365 -2.06771e-19)
(1.27326 0.387261 5.34226e-20)
(1.25252 0.358986 2.60764e-20)
(1.23331 0.331492 3.34163e-20)
(1.21714 0.305608 3.15868e-21)
(1.20362 0.281454 2.97151e-20)
(1.19227 0.258939 -1.39947e-20)
(1.18256 0.237959 -2.73718e-21)
(1.17429 0.217738 2.01518e-21)
(1.16593 0.201069 -1.30315e-20)
(0.333436 0.0851772 -3.28861e-21)
(0.85978 0.280906 3.34335e-19)
(1.15637 0.402092 8.92958e-20)
(1.26381 0.435562 -9.56763e-20)
(1.27913 0.42406 4.55175e-20)
(1.26307 0.396886 8.04633e-20)
(1.2421 0.366648 2.60919e-20)
(1.22326 0.337777 -8.78355e-20)
(1.20757 0.310826 -5.78892e-20)
(1.19455 0.285823 5.76594e-20)
(1.18365 0.262631 -4.16961e-21)
(1.1744 0.241066 -2.00781e-20)
(1.16663 0.22045 -1.91156e-20)
(1.15841 0.203523 -6.50502e-21)
(0.351527 0.0993253 -1.6543e-19)
(0.879283 0.306804 -3.17868e-19)
(1.16325 0.424812 8.92e-21)
(1.25975 0.452645 1.15705e-19)
(1.2697 0.436369 5.10601e-20)
(1.25203 0.40623 -3.67054e-20)
(1.23111 0.374081 -3.61111e-20)
(1.21277 0.343852 1.14409e-19)
(1.19766 0.315843 -5.12835e-22)
(1.18518 0.290001 -1.97211e-20)
(1.1748 0.266138 -3.0756e-20)
(1.16606 0.243981 1.75681e-20)
(1.15878 0.223009 3.35673e-20)
(1.15082 0.205798 2.39333e-20)
(0.36857 0.114226 7.20977e-20)
(0.895836 0.332781 -1.69908e-19)
(1.16722 0.447102 2.0224e-19)
(1.25361 0.469196 4.84034e-20)
(1.25898 0.448253 9.3116e-21)
(1.24018 0.415257 -9.92051e-20)
(1.21956 0.381251 -1.02101e-19)
(1.20185 0.349687 -1.06478e-19)
(1.18739 0.320633 8.90512e-20)
(1.17553 0.293961 -4.61696e-20)
(1.16573 0.269439 2.34136e-20)
(1.15755 0.246705 -1.77472e-20)
(1.15075 0.225383 1.36976e-20)
(1.14317 0.207903 -1.11019e-20)
(0.384418 0.129779 2.25567e-19)
(0.909426 0.358681 8.10736e-20)
(1.16838 0.468862 -1.67171e-20)
(1.24549 0.48516 -2.90753e-20)
(1.24704 0.459673 -7.42587e-20)
(1.22756 0.423932 -3.69507e-20)
(1.20746 0.388122 3.23506e-20)
(1.19049 0.35525 8.21965e-20)
(1.17678 0.325169 -4.77948e-20)
(1.16561 0.297683 -3.65249e-21)
(1.15644 0.272512 1.18418e-20)
(1.14887 0.249225 8.4746e-21)
(1.14256 0.227563 -3.40835e-20)
(1.13542 0.209808 -1.01861e-20)
(0.398938 0.145877 -2.5624e-19)
(0.920061 0.384351 2.41693e-19)
(1.16686 0.489994 -1.6749e-19)
(1.23552 0.500479 4.87189e-20)
(1.23396 0.470587 1.87695e-19)
(1.2142 0.432215 1.3893e-19)
(1.19481 0.394659 1.36399e-19)
(1.17873 0.360508 -4.5731e-20)
(1.16585 0.329422 -1.40736e-21)
(1.15543 0.301145 5.60483e-20)
(1.14693 0.275341 -2.40389e-20)
(1.14 0.251524 2.67176e-21)
(1.13424 0.229538 -6.32061e-21)
(1.12757 0.211508 7.1636e-21)
(0.412014 0.162406 9.19593e-20)
(0.927769 0.409642 -1.31169e-19)
(1.16277 0.510404 1.75618e-19)
(1.22381 0.515095 -1.23013e-19)
(1.2198 0.480954 -1.94567e-19)
(1.20013 0.440065 -8.7063e-20)
(1.18165 0.400824 -9.87023e-20)
(1.16656 0.365429 4.20243e-20)
(1.15459 0.333369 3.1106e-20)
(1.14497 0.304325 -6.14864e-20)
(1.1372 0.277907 2.19353e-20)
(1.13097 0.253585 -2.07506e-20)
(1.12579 0.231293 1.51768e-20)
(1.11962 0.212989 -4.52487e-21)
(0.423545 0.179247 -1.69508e-20)
(0.932597 0.434408 7.89635e-20)
(1.15622 0.529998 -5.31671e-19)
(1.21046 0.528954 1.17342e-19)
(1.20461 0.490727 -1.10058e-19)
(1.18537 0.44744 -1.04451e-20)
(1.16801 0.406581 -4.00678e-20)
(1.15401 0.369983 -1.56597e-20)
(1.14301 0.336982 -3.91299e-20)
(1.13427 0.3072 5.13767e-20)
(1.12728 0.280194 1.30189e-20)
(1.12178 0.255393 1.3225e-20)
(1.11721 0.232816 -6.15885e-21)
(1.1116 0.214243 3.42727e-21)
(0.433452 0.196276 8.80769e-20)
(0.934607 0.458511 1.52043e-19)
(1.14733 0.548686 1.97613e-19)
(1.19557 0.542 -4.62984e-20)
(1.18846 0.499862 9.31295e-20)
(1.17 0.4543 8.51748e-20)
(1.15389 0.411889 8.04935e-20)
(1.14106 0.374139 4.84539e-20)
(1.13113 0.340236 -2.73613e-20)
(1.12332 0.309748 -3.71905e-20)
(1.11717 0.282182 -2.12444e-22)
(1.11244 0.256934 -4.0198e-21)
(1.10852 0.234092 5.39867e-21)
(1.10349 0.215258 -3.76676e-21)
(0.441669 0.213367 -1.74789e-19)
(0.933872 0.481814 -2.88467e-19)
(1.13623 0.566381 2.85671e-19)
(1.17923 0.554179 -6.96303e-20)
(1.17142 0.50831 -1.72797e-20)
(1.15403 0.460603 3.21853e-20)
(1.1393 0.416714 1.05262e-20)
(1.12776 0.377864 -5.40993e-20)
(1.11896 0.343103 2.34047e-20)
(1.11215 0.311948 -1.09474e-20)
(1.10688 0.283854 -1.18771e-20)
(1.10295 0.258193 1.68653e-21)
(1.09971 0.23511 -1.31205e-22)
(1.09532 0.216028 -8.80375e-21)
(0.448151 0.230392 -3.56407e-20)
(0.930482 0.504189 -2.29341e-19)
(1.12304 0.582999 -2.74237e-19)
(1.16155 0.565436 1.7098e-22)
(1.15355 0.516034 4.07269e-20)
(1.13747 0.4663 2.28178e-21)
(1.12427 0.421022 -3.01026e-20)
(1.1141 0.381129 2.08261e-20)
(1.10652 0.34556 1.56715e-20)
(1.10076 0.313781 1.47239e-20)
(1.09642 0.285195 1.92423e-21)
(1.09333 0.259157 -7.80169e-21)
(1.09081 0.235856 7.88158e-21)
(1.0871 0.216541 1.23091e-20)
(0.452871 0.247222 1.97248e-19)
(0.924531 0.525511 1.00259e-19)
(1.10788 0.598459 2.03242e-19)
(1.14263 0.575714 2.07451e-19)
(1.1349 0.522986 -2.15769e-20)
(1.12036 0.471353 1.87923e-20)
(1.10882 0.424777 -2.91618e-20)
(1.10012 0.383905 3.5683e-22)
(1.09382 0.347582 4.77968e-21)
(1.08917 0.315225 -4.18929e-21)
(1.08581 0.286187 1.73781e-22)
(1.08359 0.259812 -5.24385e-22)
(1.08181 0.236318 -1.21024e-20)
(1.07883 0.216788 -2.38104e-20)
(0.455817 0.26373 -2.99436e-19)
(0.916131 0.545663 5.74245e-19)
(1.09087 0.612682 -1.45124e-19)
(1.12256 0.584962 -1.7873e-19)
(1.11553 0.529123 -2.23911e-20)
(1.10274 0.475726 1.64296e-20)
(1.09298 0.427943 3.285e-20)
(1.08584 0.386163 1.88938e-20)
(1.08089 0.349146 3.45163e-21)
(1.0774 0.316261 -1.04983e-21)
(1.07507 0.286816 2.57967e-22)
(1.07375 0.260145 2.19668e-20)
(1.07272 0.236484 2.14182e-20)
(1.07052 0.216761 1.98419e-20)
(0.456996 0.279789 5.21139e-20)
(0.905412 0.564543 -5.42202e-19)
(1.07211 0.625582 -1.32699e-19)
(1.10142 0.593125 7.95938e-20)
(1.09549 0.534402 -4.10968e-20)
(1.08464 0.479378 -2.89455e-21)
(1.07678 0.430488 -1.72693e-20)
(1.07128 0.387876 -7.89587e-21)
(1.06774 0.35023 9.44607e-21)
(1.06547 0.316872 -2.95015e-20)
(1.0642 0.287067 -6.01573e-21)
(1.06381 0.260146 -2.24791e-20)
(1.06357 0.236343 1.60358e-21)
(1.06219 0.21645 -2.69138e-20)
(0.456438 0.295274 -4.05481e-19)
(0.892542 0.582081 4.03987e-19)
(1.05169 0.637069 5.80733e-21)
(1.07931 0.600142 6.07064e-20)
(1.07484 0.538781 8.58163e-21)
(1.06612 0.482275 -1.19665e-20)
(1.06026 0.432381 1.22632e-20)
(1.05647 0.38902 -1.52367e-20)
(1.05441 0.350813 -3.03882e-22)
(1.05341 0.317039 6.56519e-20)
(1.05324 0.286925 1.02885e-20)
(1.0538 0.259803 7.94882e-21)
(1.05435 0.235883 7.62345e-21)
(1.05385 0.215845 -7.15574e-21)
(0.454193 0.310052 4.91212e-19)
(0.877673 0.598221 -3.50706e-19)
(1.02969 0.647076 1.96497e-19)
(1.05631 0.605942 -5.51172e-20)
(1.05363 0.542218 2.61527e-20)
(1.0472 0.48438 1.14954e-20)
(1.04345 0.433591 -5.54715e-21)
(1.04144 0.38957 -1.57233e-21)
(1.04091 0.350875 5.47921e-22)
(1.04122 0.316747 -8.84085e-21)
(1.0422 0.286378 -1.6847e-20)
(1.04373 0.259106 -4.13096e-20)
(1.04509 0.235094 -9.59242e-20)
(1.04552 0.214939 5.82032e-20)
(0.450322 0.323983 -2.71185e-19)
(0.860817 0.612814 3.1658e-19)
(1.00635 0.655635 -1.36397e-19)
(1.03253 0.610472 -9.93979e-20)
(1.03194 0.544672 1.11678e-20)
(1.02794 0.485662 -5.56213e-21)
(1.02637 0.434092 1.4073e-20)
(1.02622 0.389503 3.18605e-21)
(1.02727 0.350398 -2.56297e-20)
(1.02894 0.315981 -5.54862e-20)
(1.0311 0.285414 -6.00425e-21)
(1.03361 0.258046 2.30911e-20)
(1.03581 0.233964 -4.44724e-20)
(1.03721 0.21372 5.02457e-20)
(0.444869 0.336968 8.41461e-20)
(0.841985 0.625665 3.59528e-20)
(0.981885 0.662734 2.06755e-19)
(1.00808 0.613723 9.14432e-20)
(1.00982 0.546109 -2.32743e-20)
(1.00838 0.486091 3.14696e-20)
(1.00908 0.433859 2.97713e-20)
(1.01083 0.388799 4.07407e-20)
(1.01351 0.349366 -1.59523e-20)
(1.01658 0.314727 2.62286e-20)
(1.01995 0.284023 1.90043e-20)
(1.02347 0.256612 3.56298e-21)
(1.02651 0.232477 3.78238e-20)
(1.02893 0.212166 -1.06944e-19)
(0.437897 0.348939 1.42329e-19)
(0.821363 0.636693 -1.09315e-20)
(0.956398 0.668278 -1.72838e-19)
(0.983024 0.615681 -1.27981e-20)
(0.987342 0.546496 -7.46868e-21)
(0.988574 0.48564 -2.25594e-21)
(0.991605 0.432869 6.25873e-20)
(0.995317 0.387441 -1.50872e-20)
(0.999674 0.347762 4.55942e-20)
(1.00418 0.312971 5.12704e-20)
(1.0088 0.282194 -1.1076e-20)
(1.01332 0.254798 1.89003e-20)
(1.0172 0.230619 9.61036e-20)
(1.0207 0.210248 -1.87397e-20)
(0.429474 0.359824 1.89272e-19)
(0.799156 0.645855 -1.38068e-19)
(0.929982 0.672185 7.83147e-20)
(0.957462 0.616321 -2.50094e-21)
(0.96456 0.545806 -2.19231e-20)
(0.968562 0.484284 -7.94003e-20)
(0.97399 0.431102 -3.86229e-20)
(0.979711 0.38541 2.88934e-20)
(0.98578 0.345575 5.35289e-20)
(0.991753 0.310704 -1.31345e-20)
(0.99764 0.279919 3.21075e-21)
(1.00317 0.252596 5.23549e-21)
(1.00793 0.228381 9.42245e-21)
(1.01259 0.207968 2.02766e-19)
(0.419646 0.369521 -9.27165e-20)
(0.775579 0.653132 7.37614e-20)
(0.902753 0.6744 1.84724e-20)
(0.93148 0.615615 1.63943e-20)
(0.941544 0.544014 5.84686e-20)
(0.948399 0.481999 -3.11292e-21)
(0.956277 0.42854 -2.55601e-20)
(0.964046 0.382694 -1.26178e-21)
(0.97186 0.34279 -3.58346e-20)
(0.979334 0.307916 3.32156e-20)
(0.986505 0.27719 3.09725e-20)
(0.993041 0.249994 -3.9759e-20)
(0.998732 0.22576 -5.30436e-20)
(1.00481 0.205384 3.44906e-20)
(0.408491 0.377909 1.4579e-20)
(0.7508 0.658468 -7.48035e-20)
(0.874831 0.674894 4.32464e-21)
(0.905167 0.613539 1.15113e-22)
(0.918358 0.541099 -4.62946e-20)
(0.928136 0.478769 1.27506e-19)
(0.938509 0.425168 -5.65404e-20)
(0.948361 0.379279 -4.37121e-21)
(0.957948 0.3394 -1.5353e-19)
(0.966943 0.304599 -5.75256e-20)
(0.975402 0.273997 -3.77067e-20)
(0.982938 0.24697 -9.57548e-20)
(0.989749 0.222726 -6.37775e-20)
(0.997621 0.202537 -1.71139e-19)
(0.396145 0.384931 -5.315e-20)
(0.724964 0.661807 -3.13763e-20)
(0.84634 0.67364 -4.20545e-20)
(0.878614 0.610071 6.53232e-20)
(0.895069 0.537043 1.8336e-20)
(0.907829 0.474576 -2.24348e-19)
(0.920732 0.420975 2.02046e-20)
(0.932692 0.375156 -1.12971e-19)
(0.944074 0.335397 1.03618e-19)
(0.954606 0.300749 -1.44255e-22)
(0.964342 0.270337 6.36782e-20)
(0.972907 0.243513 2.22878e-19)
(0.981091 0.219213 -1.44431e-19)
(0.990808 0.19921 1.2248e-20)
(0.382729 0.390532 -7.68545e-20)
(0.69822 0.663107 1.56113e-20)
(0.817406 0.670618 1.18025e-19)
(0.851911 0.605194 -1.81439e-19)
(0.871746 0.531832 -2.99481e-20)
(0.887531 0.469409 -2.71647e-20)
(0.902991 0.415949 2.00498e-19)
(0.917078 0.370318 1.60177e-19)
(0.930271 0.330775 -1.31665e-19)
(0.942345 0.296363 -2.03951e-21)
(0.953354 0.26621 -7.99388e-20)
(0.963015 0.239647 -2.01812e-19)
(0.972751 0.215287 9.31057e-20)
(0.983483 0.194114 -1.99959e-20)
(0.368363 0.394656 -1.11368e-20)
(0.670725 0.66234 -4.36396e-20)
(0.788158 0.665814 -1.80722e-19)
(0.82515 0.598897 4.36949e-20)
(0.848457 0.525455 -6.65729e-20)
(0.867298 0.463258 5.73021e-20)
(0.885332 0.410085 -1.70124e-19)
(0.90156 0.364759 1.34921e-20)
(0.916572 0.325531 -1.53443e-21)
(0.930188 0.291439 -1.73521e-19)
(0.942478 0.261612 1.06679e-19)
(0.953314 0.235381 1.2503e-19)
(0.964401 0.211377 5.37225e-20)
(0.975201 0.190346 2.16431e-19)
(0.353165 0.397261 2.95722e-20)
(0.642636 0.659484 1.39432e-19)
(0.758721 0.659222 9.25827e-20)
(0.798424 0.591173 4.9901e-20)
(0.825271 0.517906 1.61618e-19)
(0.847187 0.456119 2.57379e-19)
(0.867802 0.403378 5.91248e-20)
(0.886176 0.358478 3.92675e-20)
(0.90301 0.319665 2.9745e-19)
(0.918163 0.285975 -7.59819e-20)
(0.931747 0.256536 1.93025e-21)
(0.943799 0.230661 -1.30785e-19)
(0.956067 0.206951 9.92358e-20)
(0.967087 0.185962 8.10083e-21)
(0.337257 0.398311 1.23319e-19)
(0.614106 0.654529 -3.7387e-20)
(0.72922 0.650842 1.53305e-19)
(0.771822 0.582019 -3.27136e-20)
(0.802259 0.509183 1.98409e-20)
(0.827254 0.447989 -5.21301e-20)
(0.85045 0.395828 1.51204e-19)
(0.870967 0.351474 -1.56126e-22)
(0.889617 0.313176 -1.21262e-19)
(0.9063 0.279972 2.31039e-19)
(0.921186 0.250991 -1.08024e-19)
(0.934448 0.225536 7.40554e-20)
(0.947756 0.202229 -9.98813e-21)
(0.959133 0.181576 -2.8685e-19)
(0.320764 0.397782 -4.68575e-20)
(0.585292 0.647472 -1.84247e-19)
(0.69978 0.640678 -1.27177e-19)
(0.745435 0.57144 2.34145e-19)
(0.77949 0.499287 -1.71455e-20)
(0.807558 0.438871 8.63912e-20)
(0.833324 0.387437 -1.61676e-19)
(0.855973 0.34375 -2.66061e-19)
(0.876427 0.306067 1.38794e-19)
(0.89463 0.273434 -6.06002e-20)
(0.910818 0.244977 1.57501e-19)
(0.92527 0.219993 3.20225e-21)
(0.939535 0.197137 -1.86964e-19)
(0.951393 0.176916 5.84855e-21)
(0.303809 0.395658 -1.78991e-19)
(0.556346 0.638321 6.01784e-20)
(0.670522 0.628745 -1.71075e-19)
(0.719355 0.559445 -1.90796e-19)
(0.757034 0.488225 -7.40545e-20)
(0.788155 0.428769 7.31423e-20)
(0.816471 0.378211 -1.88929e-19)
(0.841233 0.335312 1.78726e-19)
(0.863475 0.298344 -2.4395e-19)
(0.883182 0.266364 1.64089e-19)
(0.900665 0.238501 1.61745e-19)
(0.916279 0.214047 -5.13483e-20)
(0.931453 0.191714 1.93824e-19)
(0.943883 0.172004 2.15205e-19)
(0.286516 0.391931 4.34084e-20)
(0.527419 0.627089 1.22344e-20)
(0.641567 0.61506 3.2052e-19)
(0.693669 0.546047 2.65095e-19)
(0.734962 0.476007 1.31034e-19)
(0.769104 0.417694 -7.16147e-20)
(0.799938 0.368158 -1.47291e-19)
(0.826789 0.326166 -9.01604e-20)
(0.850794 0.290014 1.00406e-19)
(0.871985 0.25877 -3.16251e-19)
(0.890748 0.231569 -1.50247e-19)
(0.907494 0.207705 -1.03165e-19)
(0.923546 0.185958 6.01731e-20)
(0.936611 0.16681 -3.43072e-19)
(0.26901 0.386604 2.29839e-20)
(0.498659 0.613802 -6.84915e-20)
(0.613032 0.599649 1.26435e-20)
(0.668465 0.531266 -3.67524e-19)
(0.713341 0.462649 -1.08533e-19)
(0.75046 0.405658 -2.25746e-19)
(0.783775 0.35729 4.3057e-20)
(0.812679 0.316324 -1.20592e-19)
(0.838418 0.281086 -7.01711e-20)
(0.861068 0.25066 1.23582e-19)
(0.88109 0.224189 -1.49833e-19)
(0.898937 0.200976 -4.96165e-20)
(0.915844 0.179873 -2.18049e-20)
(0.929583 0.161327 3.728e-19)
(0.25141 0.379687 7.23541e-21)
(0.470213 0.598493 -7.49607e-20)
(0.585031 0.582543 1.07809e-19)
(0.643829 0.515126 1.2061e-19)
(0.69224 0.448169 2.49634e-20)
(0.73228 0.392677 4.01882e-19)
(0.768027 0.34562 -1.27235e-19)
(0.798944 0.305798 3.05207e-19)
(0.82638 0.271571 7.71993e-20)
(0.85046 0.242043 -2.27288e-19)
(0.871714 0.21637 1.5818e-19)
(0.89063 0.193868 2.95223e-19)
(0.90837 0.173465 -1.47372e-19)
(0.922806 0.155553 -2.79e-19)
(0.233838 0.371197 8.56201e-20)
(0.442223 0.581202 -1.7273e-19)
(0.557677 0.563781 -6.27659e-19)
(0.619846 0.497657 -1.62525e-19)
(0.671725 0.432592 2.03605e-19)
(0.714619 0.378771 3.67041e-21)
(0.75274 0.333166 1.36085e-19)
(0.785621 0.294603 -2.07045e-19)
(0.814712 0.261483 -3.03908e-19)
(0.840187 0.232933 2.18906e-19)
(0.862643 0.208123 2.26175e-20)
(0.882595 0.186391 -9.37861e-21)
(0.901144 0.166738 1.46621e-19)
(0.916288 0.149492 1.52478e-19)
(0.216412 0.361161 -2.5018e-19)
(0.414826 0.561979 1.25694e-19)
(0.531077 0.543407 1.51139e-19)
(0.596597 0.478893 3.57761e-20)
(0.651863 0.415946 4.90366e-20)
(0.697533 0.363965 -2.78871e-19)
(0.73796 0.31995 -5.77013e-20)
(0.772749 0.282758 -7.33252e-20)
(0.803448 0.250838 4.07906e-19)
(0.830276 0.223342 6.13836e-20)
(0.853899 0.199461 1.16721e-20)
(0.874853 0.178555 -2.65502e-19)
(0.894185 0.159699 3.88046e-20)
(0.91004 0.143148 -8.95952e-20)
(0.199247 0.349612 1.3477e-19)
(0.388157 0.54088 6.14928e-19)
(0.505336 0.52147 3.22119e-19)
(0.574162 0.458874 3.82794e-19)
(0.632717 0.398261 -3.9293e-19)
(0.681072 0.348285 8.05612e-20)
(0.723732 0.305993 1.34992e-20)
(0.760365 0.270281 4.33698e-19)
(0.792617 0.239651 -4.52539e-19)
(0.820755 0.213285 -2.25106e-19)
(0.845504 0.190396 -1.38494e-19)
(0.867423 0.170373 -1.07324e-19)
(0.887511 0.152358 -1.84592e-19)
(0.904072 0.136531 1.21761e-19)
(0.182455 0.336594 -1.47413e-20)
(0.362344 0.517969 -2.3384e-19)
(0.480555 0.498028 1.12776e-19)
(0.552617 0.437644 4.5917e-21)
(0.614348 0.379575 1.2768e-19)
(0.665289 0.331761 1.65656e-21)
(0.710097 0.291322 1.11556e-19)
(0.748505 0.257196 6.98949e-20)
(0.78225 0.227944 4.3249e-19)
(0.811647 0.20278 3.97275e-19)
(0.83748 0.180944 1.58549e-19)
(0.860323 0.161856 2.71525e-19)
(0.881137 0.144722 9.97154e-20)
(0.898392 0.129651 2.09608e-20)
(0.166145 0.322155 1.70008e-19)
(0.33751 0.493318 -1.89492e-20)
(0.45683 0.47314 -9.01468e-20)
(0.532036 0.41525 -1.04554e-19)
(0.596816 0.359927 3.56933e-19)
(0.650234 0.314428 5.40913e-20)
(0.697097 0.275966 3.59332e-20)
(0.737203 0.243527 -3.54547e-19)
(0.772377 0.215737 1.75826e-19)
(0.802977 0.191844 -1.39276e-19)
(0.829847 0.171121 4.54485e-20)
(0.853572 0.153019 -2.99464e-19)
(0.875079 0.136805 8.26143e-20)
(0.893012 0.12252 3.95047e-20)
(0.15042 0.306353 4.42071e-20)
(0.313773 0.467004 -9.43323e-20)
(0.434251 0.446875 -2.8697e-19)
(0.512491 0.391748 4.21333e-19)
(0.580179 0.33936 -5.9143e-19)
(0.635954 0.296321 -1.78225e-19)
(0.684773 0.259956 -2.70883e-19)
(0.726492 0.229301 2.88922e-19)
(0.763025 0.203053 -2.90788e-19)
(0.794769 0.180499 -3.13087e-19)
(0.822625 0.160944 1.69112e-19)
(0.847187 0.143875 5.77719e-20)
(0.869351 0.128617 -7.46551e-20)
(0.887942 0.115149 -6.62562e-20)
(0.135379 0.28925 -4.014e-19)
(0.291244 0.439112 -2.10721e-19)
(0.412907 0.419303 8.77595e-20)
(0.494047 0.367192 -2.03266e-19)
(0.56449 0.317921 1.78108e-19)
(0.622494 0.277481 2.30381e-19)
(0.673161 0.243326 1.20795e-19)
(0.716406 0.214547 -6.832e-20)
(0.75422 0.189918 -2.76948e-19)
(0.787046 0.168765 1.17278e-19)
(0.815833 0.150432 1.10367e-19)
(0.841184 0.134441 1.38544e-19)
(0.863967 0.120173 2.93884e-20)
(0.88319 0.107553 -1.27943e-19)
(0.121116 0.270917 5.80977e-20)
(0.270028 0.409734 1.95987e-19)
(0.392879 0.390501 2.74838e-19)
(0.476768 0.341645 -4.74468e-19)
(0.549802 0.295661 -3.93444e-19)
(0.609897 0.257951 -2.01867e-19)
(0.662299 0.226112 -3.3902e-19)
(0.706973 0.199297 1.55542e-19)
(0.745989 0.176358 3.81565e-19)
(0.779828 0.156665 1.87208e-19)
(0.809487 0.139604 -1.87489e-19)
(0.835576 0.124733 -1.74848e-19)
(0.85894 0.111487 1.41946e-19)
(0.878765 0.0997447 9.35622e-20)
(0.107719 0.251429 -2.55018e-19)
(0.250223 0.378964 2.10324e-19)
(0.374242 0.360551 -1.62582e-19)
(0.460713 0.315172 2.88602e-19)
(0.536162 0.272633 -2.94558e-21)
(0.598204 0.237774 2.00658e-19)
(0.65222 0.208352 1.68027e-19)
(0.698224 0.183582 -1.82522e-19)
(0.738356 0.1624 -1.99799e-19)
(0.773135 0.144224 -5.2676e-20)