/*--------------------------------*- C++ -*----------------------------------*\
  =========                 |
  \\      /  F ield         | OpenFOAM: The Open Source CFD Toolbox
   \\    /   O peration     | Website:  https://openfoam.org
    \\  /    A nd           | Version:  7
     \\/     M anipulation  |
\*---------------------------------------------------------------------------*/
FoamFile
{
    version     2.0;
    format      ascii;
    class       volScalarField;
    location    "15";
    object      p;
}
// * * * * * * * * * * * * * * * * * * * * * * * * * * * * * * * * * * * * * //

dimensions      [0 2 -2 0 0 0 0];

internalField   nonuniform List<scalar> 
8330
(
-0.208598
-0.212255
-0.213057
-0.214537
-0.215782
-0.21719
-0.218619
-0.22006
-0.221476
-0.222797
-0.224099
-0.225119
-0.226514
-0.226894
-0.208749
-0.212374
-0.213171
-0.214641
-0.215881
-0.217286
-0.218712
-0.22015
-0.221566
-0.22288
-0.224189
-0.225177
-0.226613
-0.226827
-0.209049
-0.212611
-0.213396
-0.214848
-0.216078
-0.217474
-0.218894
-0.220326
-0.221741
-0.223042
-0.224368
-0.225284
-0.226814
-0.226691
-0.209494
-0.212963
-0.213729
-0.215154
-0.216367
-0.217749
-0.219159
-0.220582
-0.221994
-0.223274
-0.224628
-0.225425
-0.227118
-0.22648
-0.210076
-0.213423
-0.214164
-0.215551
-0.216742
-0.218103
-0.219498
-0.220905
-0.222314
-0.223559
-0.224961
-0.225574
-0.227529
-0.226184
-0.210787
-0.213986
-0.214694
-0.216032
-0.217192
-0.218525
-0.219899
-0.221283
-0.222687
-0.223879
-0.225356
-0.225699
-0.22805
-0.225789
-0.211616
-0.214643
-0.215309
-0.216588
-0.217706
-0.219002
-0.220347
-0.2217
-0.223096
-0.224211
-0.225802
-0.225766
-0.228683
-0.225275
-0.212552
-0.215386
-0.216002
-0.217207
-0.218273
-0.219521
-0.220827
-0.222137
-0.223524
-0.224532
-0.22629
-0.225736
-0.229436
-0.224604
-0.213583
-0.216206
-0.21676
-0.217878
-0.21888
-0.220067
-0.221323
-0.222577
-0.223953
-0.224817
-0.226808
-0.22557
-0.230333
-0.223727
-0.214694
-0.217093
-0.217575
-0.218591
-0.219513
-0.220625
-0.221818
-0.223
-0.224367
-0.22504
-0.227351
-0.225226
-0.231355
-0.2227
-0.215876
-0.218039
-0.218435
-0.219332
-0.220159
-0.22118
-0.222298
-0.223391
-0.224748
-0.225174
-0.227903
-0.224745
-0.232101
-0.221855
-0.217114
-0.219034
-0.219331
-0.220093
-0.220807
-0.221719
-0.222746
-0.223733
-0.225088
-0.225199
-0.22836
-0.224363
-0.232659
-0.220884
-0.218399
-0.220071
-0.220255
-0.220863
-0.221445
-0.222231
-0.223151
-0.224014
-0.22538
-0.225191
-0.228615
-0.223865
-0.233245
-0.219749
-0.219722
-0.221143
-0.221199
-0.221633
-0.222064
-0.222705
-0.223502
-0.224222
-0.225513
-0.225166
-0.228793
-0.223166
-0.233799
-0.218507
-0.221076
-0.222246
-0.222156
-0.222398
-0.222656
-0.223133
-0.223791
-0.224371
-0.22556
-0.22501
-0.228892
-0.222308
-0.234202
-0.217236
-0.222454
-0.223374
-0.223123
-0.223152
-0.223217
-0.22351
-0.22401
-0.224439
-0.225528
-0.224742
-0.228862
-0.221356
-0.234326
-0.216052
-0.223856
-0.224528
-0.224097
-0.223893
-0.223744
-0.223835
-0.22416
-0.224423
-0.2254
-0.224386
-0.228651
-0.220382
-0.234001
-0.215071
-0.225281
-0.225705
-0.225077
-0.22462
-0.224237
-0.224108
-0.224243
-0.224332
-0.225171
-0.223967
-0.228211
-0.219462
-0.233045
-0.21434
-0.226732
-0.22691
-0.226066
-0.225335
-0.224698
-0.224333
-0.224264
-0.224173
-0.22484
-0.223495
-0.227503
-0.218649
-0.231326
-0.213758
-0.228215
-0.228146
-0.227067
-0.226043
-0.225134
-0.224517
-0.224231
-0.223956
-0.224413
-0.222972
-0.226507
-0.217937
-0.228827
-0.21306
-0.22974
-0.229419
-0.228085
-0.226751
-0.225552
-0.224671
-0.224153
-0.223691
-0.223899
-0.222383
-0.225223
-0.21724
-0.225675
-0.211922
-0.230731
-0.229136
-0.227467
-0.225965
-0.224807
-0.224045
-0.223388
-0.22331
-0.221702
-0.223669
-0.216411
-0.222078
-0.210097
-0.232099
-0.230225
-0.228204
-0.226385
-0.22494
-0.223921
-0.223051
-0.222652
-0.220897
-0.221866
-0.215287
-0.218229
-0.207503
-0.233534
-0.231362
-0.228976
-0.226828
-0.225087
-0.223796
-0.222685
-0.221923
-0.219942
-0.219823
-0.213745
-0.214228
-0.2042
-0.23505
-0.232564
-0.229796
-0.227311
-0.225263
-0.223682
-0.222291
-0.221112
-0.218809
-0.217539
-0.211725
-0.210069
-0.200328
-0.233846
-0.230683
-0.227851
-0.225485
-0.223589
-0.221867
-0.2202
-0.217474
-0.215005
-0.209221
-0.205656
-0.196072
-0.235226
-0.231654
-0.228467
-0.225766
-0.223523
-0.221409
-0.21917
-0.215911
-0.212226
-0.206257
-0.200859
-0.191672
-0.23672
-0.232727
-0.229176
-0.226118
-0.223483
-0.220908
-0.218004
-0.214093
-0.209217
-0.202869
-0.195703
-0.187329
-0.238347
-0.233919
-0.229992
-0.226545
-0.223467
-0.220352
-0.216689
-0.212005
-0.206
-0.199094
-0.190577
-0.182834
-0.235249
-0.230927
-0.227052
-0.223468
-0.219725
-0.215208
-0.209644
-0.202582
-0.194988
-0.185694
-0.177658
-0.236731
-0.23199
-0.227636
-0.22348
-0.219008
-0.213545
-0.20702
-0.198972
-0.190675
-0.180762
-0.172345
-0.233184
-0.228298
-0.223493
-0.218177
-0.211688
-0.204152
-0.195191
-0.1862
-0.175811
-0.16704
-0.234511
-0.229036
-0.223488
-0.217209
-0.20963
-0.201064
-0.191258
-0.181616
-0.170827
-0.161726
-0.235972
-0.229844
-0.223441
-0.216081
-0.207369
-0.197781
-0.187193
-0.176952
-0.165812
-0.156436
-0.230711
-0.22332
-0.214776
-0.204909
-0.194326
-0.183016
-0.172225
-0.160772
-0.151151
-0.231613
-0.223093
-0.213282
-0.202257
-0.190719
-0.17874
-0.167445
-0.155707
-0.14587
-0.222729
-0.211591
-0.199422
-0.186974
-0.174376
-0.162616
-0.150617
-0.14058
-0.209701
-0.196413
-0.183102
-0.169929
-0.157735
-0.145498
-0.135272
-0.20761
-0.193236
-0.17911
-0.165401
-0.152801
-0.140342
-0.129937
-0.189895
-0.175
-0.160788
-0.147805
-0.135143
-0.124565
-0.170771
-0.156086
-0.142741
-0.129891
-0.119147
-0.151287
-0.137599
-0.124577
-0.113672
-0.13237
-0.119192
-0.108133
-0.113726
-0.10252
-0.0968253
-0.0968253
-0.127047
-0.113727
-0.102521
-0.146388
-0.132374
-0.119194
-0.108134
-0.151294
-0.137604
-0.12458
-0.113674
-0.17078
-0.156094
-0.142747
-0.129894
-0.119148
-0.189907
-0.17501
-0.160796
-0.147812
-0.135147
-0.124567
-0.207625
-0.193249
-0.179121
-0.16541
-0.152808
-0.140347
-0.12994
-0.209718
-0.196427
-0.183114
-0.169939
-0.157743
-0.145503
-0.135275
-0.222748
-0.211609
-0.199438
-0.186987
-0.174387
-0.162624
-0.150624
-0.140583
-0.231634
-0.223113
-0.2133
-0.202274
-0.190733
-0.178752
-0.167455
-0.155714
-0.145874
-0.230731
-0.22334
-0.214795
-0.204926
-0.194342
-0.183029
-0.172236
-0.16078
-0.151156
-0.235993
-0.229865
-0.223462
-0.216101
-0.207388
-0.197798
-0.187208
-0.176964
-0.165821
-0.156442
-0.234532
-0.229057
-0.22351
-0.21723
-0.20965
-0.201083
-0.191274
-0.18163
-0.170837
-0.161733
-0.2384
-0.233205
-0.22832
-0.223515
-0.2182
-0.21171
-0.204172
-0.195209
-0.186215
-0.175822
-0.167047
-0.236751
-0.232011
-0.227658
-0.223503
-0.219031
-0.213568
-0.207042
-0.198992
-0.190691
-0.180774
-0.172353
-0.235269
-0.230948
-0.227074
-0.223491
-0.219749
-0.215232
-0.209668
-0.202603
-0.195006
-0.185707
-0.177666
-0.238368
-0.23394
-0.230013
-0.226568
-0.22349
-0.220376
-0.216714
-0.21203
-0.206023
-0.199114
-0.190593
-0.182844
-0.236741
-0.232747
-0.229197
-0.22614
-0.223507
-0.220933
-0.218031
-0.21412
-0.209242
-0.202891
-0.19572
-0.187341
-0.235246
-0.231675
-0.228489
-0.225789
-0.223548
-0.221435
-0.219197
-0.215939
-0.212252
-0.206281
-0.200879
-0.191686
-0.236679
-0.233867
-0.230704
-0.227872
-0.225508
-0.223614
-0.221894
-0.220229
-0.217504
-0.215034
-0.209247
-0.205678
-0.196087
-0.23507
-0.232584
-0.229817
-0.227332
-0.225286
-0.223707
-0.222318
-0.221142
-0.21884
-0.217569
-0.211753
-0.210093
-0.200345
-0.233554
-0.231382
-0.228996
-0.226849
-0.22511
-0.223821
-0.222713
-0.221954
-0.219973
-0.219855
-0.213775
-0.214253
-0.204219
-0.232118
-0.230244
-0.228224
-0.226406
-0.224963
-0.223946
-0.223079
-0.222683
-0.22093
-0.221899
-0.215319
-0.218256
-0.207525
-0.23075
-0.229155
-0.227487
-0.225986
-0.22483
-0.22407
-0.223416
-0.223341
-0.221735
-0.223703
-0.216445
-0.222107
-0.210121
-0.229759
-0.229437
-0.228104
-0.22677
-0.225573
-0.224694
-0.224179
-0.22372
-0.22393
-0.222417
-0.225258
-0.217275
-0.225706
-0.211948
-0.228233
-0.228163
-0.227085
-0.226062
-0.225154
-0.22454
-0.224256
-0.223984
-0.224444
-0.223006
-0.226542
-0.217972
-0.22886
-0.213088
-0.226749
-0.226927
-0.226084
-0.225354
-0.224718
-0.224355
-0.224289
-0.2242
-0.22487
-0.223528
-0.227539
-0.218685
-0.23136
-0.213787
-0.225298
-0.225722
-0.225094
-0.224638
-0.224256
-0.224129
-0.224267
-0.224359
-0.225201
-0.224
-0.228246
-0.219498
-0.23308
-0.21437
-0.223872
-0.224544
-0.224113
-0.22391
-0.223763
-0.223856
-0.224183
-0.22445
-0.22543
-0.224418
-0.228686
-0.220417
-0.234036
-0.2151
-0.22247
-0.22339
-0.223139
-0.223169
-0.223236
-0.22353
-0.224033
-0.224464
-0.225557
-0.224773
-0.228897
-0.22139
-0.234361
-0.216081
-0.22109
-0.22226
-0.222171
-0.222414
-0.222674
-0.223152
-0.223813
-0.224396
-0.225587
-0.225041
-0.228926
-0.222342
-0.234237
-0.217265
-0.219736
-0.221157
-0.221213
-0.221648
-0.22208
-0.222723
-0.223523
-0.224246
-0.225539
-0.225195
-0.228825
-0.223198
-0.233833
-0.218534
-0.218412
-0.220084
-0.220269
-0.220877
-0.22146
-0.222249
-0.223171
-0.224036
-0.225405
-0.225219
-0.228646
-0.223896
-0.233277
-0.219776
-0.217126
-0.219046
-0.219344
-0.220106
-0.220821
-0.221736
-0.222765
-0.223754
-0.225112
-0.225225
-0.228389
-0.224393
-0.23269
-0.220909
-0.215887
-0.21805
-0.218447
-0.219345
-0.220173
-0.221195
-0.222315
-0.223411
-0.22477
-0.225199
-0.22793
-0.224772
-0.23213
-0.221878
-0.214705
-0.217104
-0.217585
-0.218602
-0.219525
-0.220639
-0.221834
-0.223019
-0.224387
-0.225063
-0.227375
-0.225251
-0.23138
-0.222722
-0.213592
-0.216215
-0.21677
-0.217889
-0.218891
-0.220079
-0.221337
-0.222593
-0.223972
-0.224837
-0.226831
-0.225593
-0.230356
-0.223747
-0.21256
-0.215394
-0.21601
-0.217216
-0.218283
-0.219532
-0.22084
-0.222152
-0.22354
-0.224551
-0.22631
-0.225757
-0.229456
-0.224622
-0.211624
-0.21465
-0.215317
-0.216596
-0.217715
-0.219012
-0.220358
-0.221713
-0.22311
-0.224228
-0.22582
-0.225784
-0.228701
-0.22529
-0.210793
-0.213992
-0.2147
-0.216039
-0.217199
-0.218533
-0.219908
-0.221295
-0.222699
-0.223893
-0.225371
-0.225715
-0.228065
-0.225802
-0.210081
-0.213428
-0.214169
-0.215557
-0.216748
-0.21811
-0.219506
-0.220914
-0.222325
-0.22357
-0.224973
-0.225587
-0.227542
-0.226195
-0.209498
-0.212967
-0.213733
-0.215158
-0.216372
-0.217754
-0.219165
-0.220589
-0.222002
-0.223283
-0.224638
-0.225435
-0.227128
-0.226489
-0.209052
-0.212614
-0.213399
-0.214851
-0.216082
-0.217478
-0.218898
-0.220331
-0.221747
-0.223049
-0.224375
-0.225292
-0.226821
-0.226697
-0.20875
-0.212376
-0.213172
-0.214643
-0.215883
-0.217288
-0.218714
-0.220153
-0.221569
-0.222884
-0.224194
-0.225181
-0.226617
-0.226831
-0.208598
-0.212256
-0.213058
-0.214537
-0.215783
-0.217191
-0.21862
-0.220061
-0.221478
-0.222798
-0.2241
-0.225121
-0.226515
-0.226895
-0.228079
-0.228558
-0.229037
-0.229539
-0.230064
-0.230609
-0.231174
-0.231759
-0.23236
-0.232974
-0.233597
-0.234222
-0.234842
-0.235444
-0.236017
-0.236541
-0.236995
-0.237352
-0.237578
-0.237633
-0.237468
-0.237024
-0.236232
-0.235012
-0.233269
-0.230895
-0.227764
-0.223744
-0.218721
-0.212528
-0.205007
-0.195997
-0.185341
-0.172896
-0.158541
-0.142185
-0.123731
-0.103261
-0.0812262
-0.0545519
-0.036926
0.00293379
-0.228158
-0.228638
-0.229111
-0.229613
-0.230139
-0.230686
-0.231254
-0.231842
-0.232446
-0.233064
-0.233692
-0.234324
-0.23495
-0.235561
-0.236142
-0.236677
-0.237142
-0.237512
-0.237752
-0.237822
-0.237673
-0.237246
-0.236473
-0.235272
-0.23355
-0.231196
-0.228084
-0.224089
-0.219085
-0.212912
-0.205409
-0.196416
-0.185776
-0.173346
-0.159004
-0.142662
-0.12423
-0.103768
-0.0817901
-0.0550627
-0.0373774
0.00388155
-0.228305
-0.22879
-0.229251
-0.229752
-0.23028
-0.230831
-0.231403
-0.231995
-0.232606
-0.233233
-0.23387
-0.234512
-0.235152
-0.235777
-0.236376
-0.236929
-0.237416
-0.237809
-0.238076
-0.238174
-0.238056
-0.237663
-0.236926
-0.235762
-0.234078
-0.231763
-0.22869
-0.224741
-0.219776
-0.213641
-0.206174
-0.197215
-0.186606
-0.174206
-0.15989
-0.143577
-0.125185
-0.104735
-0.0828594
-0.0560473
-0.0382552
0.00559694
-0.228504
-0.228997
-0.229439
-0.229937
-0.230468
-0.231022
-0.231599
-0.232199
-0.232819
-0.233456
-0.234106
-0.234764
-0.235421
-0.236067
-0.236689
-0.23727
-0.237787
-0.238214
-0.238517
-0.238656
-0.238582
-0.238236
-0.237548
-0.236437
-0.234809
-0.232549
-0.229531
-0.225646
-0.220738
-0.214658
-0.207243
-0.198333
-0.187769
-0.175411
-0.161134
-0.144859
-0.12652
-0.106082
-0.084328
-0.0574272
-0.0395801
0.00757144
-0.228731
-0.229239
-0.229653
-0.230144
-0.230677
-0.231235
-0.231818
-0.232426
-0.233056
-0.233706
-0.234371
-0.235047
-0.235726
-0.236397
-0.237048
-0.237661
-0.238215
-0.238682
-0.239031
-0.239219
-0.239199
-0.238911
-0.238285
-0.23724
-0.235679
-0.233485
-0.230533
-0.226729
-0.221896
-0.215886
-0.208537
-0.19969
-0.189183
-0.176878
-0.162648
-0.146416
-0.128136
-0.107706
-0.0860692
-0.0590421
-0.0413705
0.00757395
-0.228968
-0.229496
-0.229871
-0.23035
-0.230882
-0.231442
-0.232029
-0.232645
-0.233285
-0.233949
-0.234631
-0.235327
-0.236029
-0.236728
-0.23741
-0.23806
-0.238654
-0.239168
-0.239567
-0.239811
-0.239852
-0.23963
-0.239075
-0.238104
-0.236619
-0.234503
-0.231631
-0.227919
-0.223169
-0.217238
-0.209967
-0.201192
-0.190752
-0.178509
-0.164333
-0.148147
-0.129926
-0.109493
-0.0879577
-0.0607187
-0.0429847
0.00506459
-0.229205
-0.229754
-0.230074
-0.230531
-0.231058
-0.231617
-0.232207
-0.232828
-0.233478
-0.234154
-0.234852
-0.235568
-0.236294
-0.237022
-0.237737
-0.238424
-0.239062
-0.239623
-0.240076
-0.240379
-0.240484
-0.240332
-0.239852
-0.238962
-0.23756
-0.235531
-0.232782
-0.229131
-0.22447
-0.218627
-0.211441
-0.202748
-0.192381
-0.180207
-0.166091
-0.149948
-0.131784
-0.111322
-0.0898281
-0.0629893
-0.0439191
0.0023739
-0.229465
-0.230004
-0.230248
-0.230674
-0.231189
-0.23174
-0.232327
-0.23295
-0.233607
-0.234293
-0.235007
-0.235741
-0.23649
-0.237245
-0.237992
-0.238716
-0.239396
-0.240005
-0.240512
-0.240874
-0.241044
-0.240963
-0.24056
-0.23975
-0.23843
-0.236479
-0.233829
-0.230283
-0.22572
-0.219967
-0.212873
-0.204267
-0.193978
-0.181879
-0.167828
-0.151716
-0.133599
-0.11318
-0.0915334
-0.0650564
-0.0447937
-0.000258432
-0.229858
-0.230257
-0.230389
-0.23077
-0.231261
-0.231796
-0.232373
-0.232994
-0.233653
-0.234347
-0.235072
-0.235822
-0.236592
-0.237371
-0.238147
-0.238905
-0.239625
-0.240279
-0.240836
-0.241255
-0.241487
-0.241474
-0.241146
-0.240416
-0.23918
-0.237338
-0.234765
-0.231316
-0.226853
-0.221176
-0.214181
-0.205666
-0.195459
-0.183434
-0.169438
-0.153394
-0.135298
-0.114893
-0.0931412
-0.0668231
-0.0455497
-0.00281463
-0.230019
-0.230472
-0.230492
-0.230804
-0.231263
-0.231776
-0.232337
-0.232948
-0.233605
-0.234302
-0.235034
-0.235796
-0.236581
-0.23738
-0.238182
-0.238969
-0.239723
-0.240417
-0.241019
-0.241489
-0.241778
-0.241828
-0.24157
-0.240913
-0.239748
-0.23801
-0.235514
-0.232157
-0.227784
-0.22222
-0.21531
-0.206884
-0.196757
-0.18481
-0.170871
-0.154882
-0.13681
-0.116402
-0.0945703
-0.0683092
-0.0461308
-0.00519671
-0.229886
-0.230609
-0.230536
-0.230763
-0.231186
-0.231674
-0.232213
-0.232808
-0.233456
-0.23415
-0.234884
-0.235652
-0.236448
-0.237262
-0.238082
-0.238893
-0.239674
-0.240401
-0.241041
-0.241554
-0.241893
-0.241998
-0.241801
-0.241212
-0.240133
-0.238458
-0.236047
-0.232777
-0.22849
-0.22302
-0.216198
-0.20786
-0.197813
-0.185943
-0.172062
-0.156126
-0.138076
-0.11766
-0.095758
-0.0695194
-0.0465263
-0.00732498
-0.229718
-0.230661
-0.230502
-0.230643
-0.231027
-0.231487
-0.231998
-0.232571
-0.233203
-0.233888
-0.234617
-0.235385
-0.236185
-0.237007
-0.237839
-0.238666
-0.239467
-0.240218
-0.240888
-0.241435
-0.241814
-0.241965
-0.241815
-0.241273
-0.240279
-0.238662
-0.236327
-0.233136
-0.228928
-0.223544
-0.216803
-0.20855
-0.198579
-0.186786
-0.172962
-0.157079
-0.139051
-0.118633
-0.0966656
-0.070457
-0.0467365
-0.00915601
-0.22941
-0.230589
-0.230367
-0.230426
-0.230774
-0.231206
-0.231687
-0.232233
-0.232844
-0.233512
-0.23423
-0.234991
-0.235788
-0.23661
-0.237446
-0.238281
-0.239093
-0.23986
-0.240548
-0.24112
-0.241527
-0.241712
-0.241602
-0.241129
-0.240157
-0.238599
-0.236329
-0.233206
-0.229069
-0.223762
-0.217095
-0.208921
-0.199019
-0.187301
-0.173533
-0.157705
-0.139702
-0.119293
-0.0972676
-0.071127
-0.0467668
-0.0106762
-0.228891
-0.230339
-0.230095
-0.230083
-0.230401
-0.23081
-0.231263
-0.23178
-0.232365
-0.233013
-0.233714
-0.234461
-0.235248
-0.236063
-0.236895
-0.237728
-0.238543
-0.239315
-0.240012
-0.240597
-0.241021
-0.241226
-0.241142
-0.240691
-0.239762
-0.238254
-0.236035
-0.232967
-0.228889
-0.223647
-0.217045
-0.208943
-0.199106
-0.18746
-0.173746
-0.157978
-0.140005
-0.119625
-0.0975502
-0.0715338
-0.0466263
-0.0118948
-0.228088
-0.229831
-0.229624
-0.229569
-0.229869
-0.230267
-0.230698
-0.231188
-0.231748
-0.232371
-0.23305
-0.233778
-0.234548
-0.235349
-0.23617
-0.236993
-0.237801
-0.238569
-0.239265
-0.239851
-0.240281
-0.240492
-0.240432
-0.239992
-0.239088
-0.237609
-0.235425
-0.2324
-0.228368
-0.223182
-0.216634
-0.208596
-0.198817
-0.187242
-0.173582
-0.157881
-0.139944
-0.11962
-0.0975094
-0.0716818
-0.0463269
-0.0128369
-0.226948
-0.228974
-0.228878
-0.228823
-0.229124
-0.229525
-0.229947
-0.230418
-0.230955
-0.231554
-0.232209
-0.232915
-0.233663
-0.234445
-0.235247
-0.236054
-0.236847
-0.237601
-0.238286
-0.238864
-0.23929
-0.239506
-0.239435
-0.239001
-0.238108
-0.236646
-0.234484
-0.231488
-0.22749
-0.222347
-0.215843
-0.207864
-0.198136
-0.186631
-0.173027
-0.157402
-0.139512
-0.119277
-0.0971501
-0.071577
-0.0458817
-0.0135361
-0.225466
-0.2277
-0.22778
-0.227776
-0.228101
-0.228522
-0.228951
-0.229415
-0.229937
-0.230517
-0.231151
-0.231833
-0.232558
-0.233315
-0.234094
-0.234878
-0.235649
-0.236382
-0.237048
-0.237608
-0.238019
-0.23822
-0.238139
-0.2377
-0.236805
-0.235346
-0.233193
-0.230214
-0.226238
-0.221128
-0.214661
-0.206733
-0.197054
-0.18562
-0.172075
-0.15654
-0.138709
-0.118602
-0.0964848
-0.0712285
-0.0453049
-0.014029
-0.223676
-0.22598
-0.22627
-0.226366
-0.226734
-0.227188
-0.227641
-0.228117
-0.228636
-0.229205
-0.229822
-0.230485
-0.231186
-0.231919
-0.232672
-0.23343
-0.234174
-0.23488
-0.23552
-0.236051
-0.236445
-0.236623
-0.236522
-0.236065
-0.235157
-0.233691
-0.231535
-0.228564
-0.2246
-0.219516
-0.213077
-0.205197
-0.195566
-0.184206
-0.170728
-0.155299
-0.137545
-0.117604
-0.0955324
-0.0706498
-0.0446113
-0.0143512
-0.221615
-0.223822
-0.224322
-0.224546
-0.224967
-0.225461
-0.225953
-0.226457
-0.226989
-0.227559
-0.228169
-0.228817
-0.229501
-0.230211
-0.230939
-0.231669
-0.232384
-0.23306
-0.233669
-0.234179
-0.234539
-0.234688
-0.234558
-0.234076
-0.233146
-0.231665
-0.229498
-0.226526
-0.222567
-0.217502
-0.211089
-0.203255
-0.193675
-0.182395
-0.168996
-0.153692
-0.136038
-0.116302
-0.0943175
-0.0698591
-0.0438167
-0.0145352
-0.219262
-0.221241
-0.221933
-0.222294
-0.222759
-0.223292
-0.223835
-0.224382
-0.22494
-0.225523
-0.226138
-0.226783
-0.227455
-0.228149
-0.228854
-0.229559
-0.230243
-0.230885
-0.231459
-0.23194
-0.232275
-0.232392
-0.232228
-0.231716
-0.230759
-0.229256
-0.227074
-0.224096
-0.220138
-0.215091
-0.208702
-0.200918
-0.191393
-0.180204
-0.166897
-0.151741
-0.134211
-0.114721
-0.0928694
-0.0688794
-0.0429376
-0.014609
-0.216531
-0.218233
-0.219112
-0.2196
-0.220091
-0.220657
-0.221258
-0.221856
-0.22245
-0.223058
-0.22369
-0.224342
-0.225013
-0.225697
-0.226387
-0.227069
-0.227726
-0.228339
-0.228882
-0.229329
-0.229639
-0.229723
-0.229524
-0.228979
-0.227992
-0.226466
-0.224265
-0.22128
-0.217322
-0.212293
-0.205932
-0.198202
-0.188743
-0.177657
-0.164459
-0.149475
-0.132098
-0.112892
-0.0912219
-0.0677371
-0.0419913
-0.0145961
-0.213325
-0.214785
-0.215865
-0.216461
-0.216961
-0.21756
-0.218223
-0.218874
-0.219508
-0.220151
-0.220811
-0.221481
-0.22216
-0.222844
-0.223526
-0.224195
-0.224833
-0.225421
-0.225933
-0.226341
-0.226629
-0.226683
-0.226449
-0.225872
-0.224856
-0.223306
-0.221087
-0.218096
-0.214141
-0.209134
-0.202807
-0.195139
-0.185756
-0.174789
-0.161719
-0.146933
-0.12974
-0.11085
-0.0894113
-0.066461
-0.0409951
-0.0145161
-0.209612
-0.210916
-0.212205
-0.212881
-0.213385
-0.214027
-0.214754
-0.215455
-0.216133
-0.216818
-0.217514
-0.218211
-0.218907
-0.219601
-0.220286
-0.220949
-0.221575
-0.222142
-0.222625
-0.222995
-0.223262
-0.223288
-0.223023
-0.222417
-0.221373
-0.219802
-0.217568
-0.214574
-0.210627
-0.205647
-0.199363
-0.191768
-0.182475
-0.171643
-0.158723
-0.144157
-0.127179
-0.108636
-0.0874745
-0.0650802
-0.0399655
-0.0143838
-0.205443
-0.206692
-0.208165
-0.208884
-0.209402
-0.210107
-0.210896
-0.211642
-0.212365
-0.213097
-0.213834
-0.214563
-0.215285
-0.215997
-0.216692
-0.217357
-0.217978
-0.218532
-0.218992
-0.219325
-0.219573
-0.219569
-0.219279
-0.218648
-0.21758
-0.215992
-0.213747
-0.210756
-0.206823
-0.201879
-0.195647
-0.188136
-0.178948
-0.168267
-0.155518
-0.141195
-0.124461
-0.106289
-0.0854476
-0.0636233
-0.0389183
-0.0142104
-0.20099
-0.202234
-0.203799
-0.204515
-0.205076
-0.205864
-0.20671
-0.207497
-0.208268
-0.20905
-0.209828
-0.210594
-0.211347
-0.212083
-0.212793
-0.213467
-0.21409
-0.214637
-0.215082
-0.21536
-0.215601
-0.215572
-0.215265
-0.214616
-0.21353
-0.21193
-0.209681
-0.2067
-0.202789
-0.197889
-0.191719
-0.184305
-0.175236
-0.164723
-0.152164
-0.138102
-0.12164
-0.103857
-0.0833731
-0.0621245
-0.0378745
-0.0140073
-0.196502
-0.197714
-0.199201
-0.199861
-0.200496
-0.201378
-0.202275
-0.203109
-0.203935
-0.204767
-0.205588
-0.206393
-0.207179
-0.207942
-0.208673
-0.209362
-0.209994
-0.210545
-0.210991
-0.211332
-0.211407
-0.211357
-0.211047
-0.210389
-0.209292
-0.207688
-0.205442
-0.202478
-0.198597
-0.193752
-0.187656
-0.180351
-0.171416
-0.161086
-0.148737
-0.134953
-0.118785
-0.101403
-0.0813037
-0.0606247
-0.0368621
-0.0137903
-0.192339
-0.193403
-0.194546
-0.195049
-0.195732
-0.196663
-0.197583
-0.198459
-0.199338
-0.200217
-0.20108
-0.201924
-0.202746
-0.20354
-0.204299
-0.205013
-0.205668
-0.20625
-0.206741
-0.207102
-0.207105
-0.206988
-0.206653
-0.205979
-0.204871
-0.203268
-0.201033
-0.198096
-0.194257
-0.189479
-0.183472
-0.17629
-0.167506
-0.157373
-0.145251
-0.131757
-0.115901
-0.0989254
-0.0792336
-0.0591169
-0.0358721
-0.0135659
-0.18855
-0.189415
-0.189892
-0.190092
-0.190719
-0.191588
-0.192471
-0.193366
-0.194284
-0.195206
-0.196117
-0.197011
-0.197879
-0.198713
-0.199505
-0.200243
-0.200911
-0.20148
-0.201898
-0.202086
-0.202257
-0.202221
-0.201915
-0.201258
-0.200163
-0.198575
-0.196359
-0.193453
-0.189658
-0.184947
-0.179026
-0.171965
-0.163329
-0.153393
-0.1415
-0.128304
-0.112776
-0.0962273
-0.076978
-0.0574589
-0.0347871
-0.0132987
-0.183263
-0.185498
-0.185919
-0.186285
-0.187028
-0.187923
-0.188827
-0.189736
-0.190659
-0.191586
-0.192505
-0.193405
-0.194279
-0.195118
-0.195913
-0.196653
-0.197327
-0.197924
-0.198448
-0.198827
-0.198661
-0.198472
-0.198096
-0.197374
-0.196215
-0.194569
-0.1923
-0.189352
-0.185527
-0.180806
-0.174898
-0.167885
-0.159331
-0.149531
-0.137817
-0.124876
-0.109648
-0.0935055
-0.0746924
-0.0557636
-0.0336621
-0.0129793
-0.177653
-0.180478
-0.18117
-0.181608
-0.182409
-0.183387
-0.184365
-0.18532
-0.186272
-0.187225
-0.188167
-0.189086
-0.189974
-0.190821
-0.191617
-0.19235
-0.193005
-0.19356
-0.193975
-0.194154
-0.194158
-0.194001
-0.193589
-0.192828
-0.191629
-0.189945
-0.187644
-0.184676
-0.180847
-0.176146
-0.170287
-0.16336
-0.154937
-0.145319
-0.133843
-0.121205
-0.106343
-0.0906461
-0.0723317
-0.0540021
-0.0325225
-0.0126045
-0.172219
-0.175389
-0.176188
-0.176636
-0.177474
-0.178524
-0.179568
-0.180565
-0.181547
-0.182524
-0.183487
-0.184424
-0.185324
-0.186177
-0.186973
-0.187698
-0.188334
-0.188857
-0.189228
-0.189423
-0.189435
-0.189228
-0.18875
-0.187935
-0.186689
-0.184963
-0.182629
-0.179642
-0.175816
-0.171142
-0.165346
-0.15852
-0.150249
-0.140834
-0.129627
-0.117318
-0.10286
-0.0876348
-0.0698661
-0.0521548
-0.0313582
-0.0121995
-0.167016
-0.170242
-0.171087
-0.171558
-0.172432
-0.173539
-0.174637
-0.175674
-0.176683
-0.177682
-0.178665
-0.179617
-0.180528
-0.181386
-0.182181
-0.182899
-0.183521
-0.184025
-0.184383
-0.184577
-0.184559
-0.184304
-0.183774
-0.182911
-0.181624
-0.179862
-0.177504
-0.174506
-0.170692
-0.166055
-0.160333
-0.153618
-0.145512
-0.136308
-0.125383
-0.113411
-0.0993701
-0.0846194
-0.0674118
-0.0503124
-0.0302204
-0.0117866
-0.161624
-0.16493
-0.165851
-0.166362
-0.16727
-0.168423
-0.169569
-0.170645
-0.171683
-0.172705
-0.173707
-0.174674
-0.175594
-0.176457
-0.177252
-0.177964
-0.178574
-0.179064
-0.179406
-0.179575
-0.179528
-0.179242
-0.178674
-0.177773
-0.176452
-0.174662
-0.172289
-0.16929
-0.165498
-0.160908
-0.155271
-0.148677
-0.140745
-0.131763
-0.121129
-0.1095
-0.0958863
-0.0816111
-0.0649756
-0.0484796
-0.0291054
-0.0113651
-0.15607
-0.15949
-0.1605
-0.161054
-0.16199
-0.163182
-0.164372
-0.165487
-0.166554
-0.167598
-0.168618
-0.169599
-0.170529
-0.171397
-0.172191
-0.172898
-0.173499
-0.173974
-0.174298
-0.174443
-0.174373
-0.174062
-0.173462
-0.172529
-0.171182
-0.169372
-0.166991
-0.164001
-0.16024
-0.155707
-0.150164
-0.143701
-0.135955
-0.127202
-0.116869
-0.105588
-0.0924109
-0.0786119
-0.0625578
-0.0466572
-0.0280095
-0.0109373
-0.150454
-0.153948
-0.155044
-0.155645
-0.15661
-0.157836
-0.159067
-0.160218
-0.161314
-0.162381
-0.163418
-0.164414
-0.165353
-0.166226
-0.167021
-0.167723
-0.168315
-0.168778
-0.169084
-0.16921
-0.169122
-0.168788
-0.168162
-0.167203
-0.165835
-0.164014
-0.161634
-0.15866
-0.15494
-0.150473
-0.145035
-0.13871
-0.131158
-0.122642
-0.112617
-0.10169
-0.0889553
-0.075632
-0.0601649
-0.0448512
-0.0269333
-0.0105074
-0.144773
-0.14831
-0.149493
-0.150149
-0.151143
-0.1524
-0.153668
-0.154855
-0.155979
-0.157069
-0.158125
-0.159134
-0.160084
-0.160963
-0.161759
-0.162459
-0.163044
-0.163496
-0.163789
-0.163899
-0.163794
-0.163441
-0.162795
-0.161816
-0.160436
-0.15861
-0.156239
-0.15329
-0.14962
-0.145227
-0.139902
-0.133724
-0.126374
-0.1181
-0.10839
-0.0978178
-0.0855307
-0.0726813
-0.0578031
-0.0430672
-0.0258774
-0.0100787
-0.139029
-0.142596
-0.143865
-0.144578
-0.145603
-0.146889
-0.148191
-0.149412
-0.150564
-0.151677
-0.152751
-0.153775
-0.154736
-0.155622
-0.156421
-0.15712
-0.157701
-0.158144
-0.158427
-0.158525
-0.158406
-0.158038
-0.157378
-0.156388
-0.155002
-0.153179
-0.150826
-0.147909
-0.144297
-0.139987
-0.134782
-0.128759
-0.121616
-0.11359
-0.1042
-0.0939841
-0.0821459
-0.0697676
-0.055477
-0.04131
-0.0248418
-0.00965387
-0.133251
-0.136828
-0.138174
-0.138946
-0.140002
-0.141314
-0.142648
-0.1439
-0.145081
-0.146216
-0.147309
-0.148348
-0.149321
-0.150215
-0.151019
-0.151719
-0.152298
-0.152737
-0.153013
-0.153102
-0.152973
-0.152596
-0.151928
-0.150933
-0.149549
-0.147736
-0.145408
-0.142533
-0.138986
-0.134766
-0.12969
-0.123827
-0.116898
-0.109123
-0.100055
-0.0901974
-0.0788081
-0.0668972
-0.0531902
-0.039583
-0.0238266
-0.00923523
-0.12745
-0.13102
-0.132436
-0.133265
-0.134352
-0.135688
-0.137051
-0.138334
-0.139541
-0.140698
-0.141809
-0.142865
-0.14385
-0.144754
-0.145564
-0.146268
-0.146847
-0.147284
-0.147557
-0.147642
-0.147508
-0.147127
-0.146457
-0.145464
-0.144088
-0.142294
-0.139999
-0.137173
-0.1337
-0.129577
-0.124635
-0.118939
-0.112229
-0.104708
-0.0959654
-0.0864651
-0.0755228
-0.0640753
-0.0509455
-0.0378891
-0.0228317
-0.00882449
-0.121636
-0.125186
-0.126664
-0.127549
-0.128666
-0.130025
-0.131413
-0.132724
-0.133957
-0.135135
-0.136265
-0.137337
-0.138336
-0.13925
-0.140069
-0.140777
-0.14136
-0.141799
-0.142072
-0.142156
-0.142022
-0.141642
-0.140976
-0.139991
-0.138632
-0.136864
-0.134609
-0.13184
-0.128448
-0.12443
-0.119629
-0.114104
-0.107617
-0.100354
-0.0919364
-0.0827934
-0.0722949
-0.0613061
-0.0487451
-0.0362305
-0.0218574
-0.00842297
-0.115822
-0.119339
-0.120873
-0.121811
-0.122957
-0.124336
-0.125747
-0.127084
-0.128341
-0.12954
-0.130688
-0.131775
-0.132788
-0.133715
-0.134542
-0.135259
-0.135847
-0.136291
-0.136567
-0.136655
-0.136526
-0.136152
-0.135497
-0.134527
-0.133191
-0.131455
-0.129248
-0.126543
-0.123239
-0.119332
-0.114678
-0.109331
-0.103069
-0.0960666
-0.0879741
-0.0791871
-0.069128
-0.0585928
-0.046591
-0.034609
-0.0209038
-0.00803158
-0.110022
-0.113495
-0.115076
-0.116065
-0.117238
-0.118636
-0.120067
-0.121427
-0.122706
-0.123925
-0.12509
-0.126193
-0.12722
-0.128159
-0.128998
-0.129723
-0.13032
-0.130771
-0.131055
-0.13115
-0.13103
-0.130668
-0.130028
-0.129079
-0.127773
-0.126077
-0.123926
-0.121291
-0.118082
-0.114293
-0.109791
-0.104625
-0.0985922
-0.0918514
-0.0840833
-0.0756506
-0.0660255
-0.0559382
-0.0444845
-0.0330258
-0.0199712
-0.00765092
-0.104251
-0.107667
-0.109288
-0.110326
-0.111526
-0.112938
-0.114387
-0.115767
-0.117066
-0.118303
-0.119485
-0.120603
-0.121644
-0.122596
-0.123447
-0.124183
-0.12479
-0.125251
-0.125545
-0.125652
-0.125545
-0.1252
-0.124581
-0.123659
-0.122389
-0.12074
-0.11865
-0.116093
-0.112984
-0.109319
-0.104973
-0.0999923
-0.0941911
-0.0877133
-0.0802682
-0.0721875
-0.0629901
-0.0533445
-0.0424271
-0.031482
-0.0190598
-0.00728136
-0.0985233
-0.101872
-0.103526
-0.104609
-0.105834
-0.107259
-0.108721
-0.110118
-0.111435
-0.112689
-0.113886
-0.115018
-0.116073
-0.117038
-0.117902
-0.11865
-0.119269
-0.119742
-0.12005
-0.120172
-0.120083
-0.119758
-0.119165
-0.118276
-0.117048
-0.115451
-0.113429
-0.110956
-0.107953
-0.104416
-0.100232
-0.0954395
-0.0898709
-0.0836569
-0.0765324
-0.0688009
-0.0600243
-0.0508136
-0.0404199
-0.0299784
-0.0181702
-0.00692309
-0.0928557
-0.096126
-0.0978052
-0.0989301
-0.100177
-0.101612
-0.103085
-0.104495
-0.105828
-0.107096
-0.108307
-0.109453
-0.110521
-0.111499
-0.112375
-0.113137
-0.11377
-0.114257
-0.114581
-0.114721
-0.114653
-0.114354
-0.113792
-0.11294
-0.111759
-0.110221
-0.108271
-0.105887
-0.102996
-0.0995924
-0.0955724
-0.0909716
-0.0856365
-0.0796863
-0.0728796
-0.0654937
-0.0571302
-0.0483472
-0.0384639
-0.0285156
-0.0173026
-0.00657618
-0.0872627
-0.0904452
-0.0921415
-0.093304
-0.0945705
-0.0960125
-0.0974921
-0.0989131
-0.100258
-0.101539
-0.102762
-0.103919
-0.105
-0.105991
-0.10688
-0.107656
-0.108304
-0.108808
-0.109149
-0.10931
-0.109267
-0.108997
-0.10847
-0.107661
-0.106532
-0.105057
-0.103185
-0.100895
-0.0981203
-0.0948535