/*--------------------------------*- C++ -*----------------------------------*\
  =========                 |
  \\      /  F ield         | OpenFOAM: The Open Source CFD Toolbox
   \\    /   O peration     | Website:  https://openfoam.org
    \\  /    A nd           | Version:  7
     \\/     M anipulation  |
\*---------------------------------------------------------------------------*/
FoamFile
{
    version     2.0;
    format      ascii;
    class       surfaceScalarField;
    location    "15";
    object      phi;
}
// * * * * * * * * * * * * * * * * * * * * * * * * * * * * * * * * * * * * * //

dimensions      [0 3 -1 0 0 0 0];

internalField   nonuniform List<scalar> 
16429
(
-1.48149e-05
1.47855e-05
2.93512e-08
-4.73342e-05
3.24696e-05
4.96534e-08
-9.21237e-05
4.47397e-05
4.98402e-08
-0.00014552
5.33565e-05
4.00851e-08
-0.0002056
6.0054e-05
2.5436e-08
-0.000271458
6.5852e-05
6.8406e-09
-0.000342881
7.14395e-05
-1.718e-08
-0.000419987
7.71556e-05
-4.89866e-08
-0.000503111
8.32145e-05
-9.09996e-08
-0.000592475
8.951e-05
-1.45493e-07
-0.000688969
9.67074e-05
-2.14184e-07
-0.000792111
0.000103441
-2.98487e-07
-0.000906524
0.00011481
-3.97339e-07
0.0001217
-5.11279e-07
-0.00102771
-1.46549e-05
2.94404e-05
-4.6858e-05
6.46727e-05
-9.1206e-05
8.90877e-05
-0.000144033
0.000106184
-0.000203384
0.000119405
-0.000268307
0.000130775
-0.000338525
0.000141657
-0.000414078
0.000152709
-0.000495208
0.000164345
-0.00058199
0.000176292
-0.000675214
0.00018993
-0.000773902
0.00020213
-0.000882928
0.000223836
0.000234912
-0.00099614
-1.43392e-05
4.37796e-05
-4.59167e-05
9.62502e-05
-8.93898e-05
0.000132561
-0.000141088
0.000157882
-0.000198994
0.000177311
-0.000262063
0.000193844
-0.000329893
0.000209487
-0.000402372
0.000225188
-0.000479565
0.000241537
-0.000561254
0.000257982
-0.000648058
0.000276734
-0.000738006
0.000292078
-0.000836552
0.000322382
0.000332604
-0.000934245
-1.38763e-05
5.76559e-05
-4.45322e-05
0.000126906
-8.6713e-05
0.000174742
-0.000136741
0.000207909
-0.000192509
0.00023308
-0.000252835
0.00025417
-0.000317139
0.000273791
-0.000385086
0.000293134
-0.000456486
0.000312938
-0.000530703
0.000332198
-0.000608158
0.00035419
-0.000685388
0.000369308
-0.000768893
0.000405887
0.000408048
-0.000844336
-1.32784e-05
7.09343e-05
-4.27364e-05
0.000156364
-8.32306e-05
0.000215236
-0.000131073
0.000255752
-0.000184044
0.00028605
-0.000240784
0.00031091
-0.000300485
0.000333492
-0.000362525
0.000355174
-0.000426406
0.000376819
-0.000490945
0.000396737
-0.000556414
0.000419659
-0.00061736
0.000430254
-0.000681935
0.000470462
0.00045561
-0.000729497
-1.25612e-05
8.34955e-05
-4.05705e-05
0.000184373
-7.90138e-05
0.000253679
-0.000124192
0.00030093
-0.000173748
0.000335607
-0.000226114
0.000363275
-0.000280209
0.000387587
-0.000335073
0.000410039
-0.000389853
0.000431598
-0.000442715
0.000449599
-0.000493876
0.000470819
-0.000535435
0.000471813
-0.000577862
0.00051289
0.000470919
-0.000593172
-1.17437e-05
9.52392e-05
-3.80835e-05
0.000210713
-7.41476e-05
0.000289743
-0.000116223
0.000343005
-0.000161797
0.000381181
-0.000209063
0.000410542
-0.000256635
0.000435159
-0.000303169
0.000456572
-0.000347421
0.000475851
-0.000386813
0.000488991
-0.000421629
0.000505635
-0.000441183
0.000491367
-0.000458705
0.000530412
0.000450911
-0.000438697
-1.0847e-05
0.000106086
-3.5331e-05
0.000235197
-6.87283e-05
0.000323141
-0.000107307
0.000381584
-0.000148387
0.00042226
-0.000189898
0.000452054
-0.000230118
0.000475379
-0.00026728
0.000493734
-0.000299727
0.000508298
-0.000324053
0.000513317
-0.000340679
0.000522261
-0.000336097
0.000486784
-0.000325974
0.000520289
0.000393806
-0.000268869
-9.89401e-06
0.00011598
-3.23736e-05
0.000257677
-6.28606e-05
0.000353628
-9.76006e-05
0.000416324
-0.00013373
0.00045839
-0.0001689
0.000487224
-0.000201022
0.000507501
-0.000227877
0.000520589
-0.000247364
0.000527786
-0.000255203
0.000521156
-0.000251829
0.000518887
-0.000221523
0.000456479
-0.000180169
0.000478934
0.000299815
-8.61772e-05
-8.90887e-06
0.000124889
-2.92745e-05
0.000278042
-5.66544e-05
0.000381008
-8.72633e-05
0.000446933
-0.000118045
0.000489172
-0.000146352
0.000515531
-0.000169708
0.000530856
-0.000185406
0.000536287
-0.000190859
0.000533238
-0.000180933
0.00051123
-0.000155511
0.000493465
-9.89971e-05
0.000399965
-1.81817e-05
0.000398119
0.000169912
0.000111721
-7.9158e-06
0.000132805
-2.6098e-05
0.000296225
-5.02208e-05
0.00040513
-7.64571e-05
0.00047317
-0.000101546
0.00051426
-0.000122526
0.000536511
-0.000136502
0.000544833
-0.000140251
0.000540036
-0.00013062
0.000523608
-0.000101829
0.000482438
-5.11353e-05
0.000442772
3.11904e-05
0.000317639
0.000145244
0.000284065
-1.10638e-05
0.000326219
-6.93855e-06
0.000139743
-2.29069e-05
0.000312193
-4.36685e-05
0.000425892
-6.53378e-05
0.000494839
-8.44362e-05
0.000533359
-9.76671e-05
0.000549741
-0.000101683
0.000548849
-9.26878e-05
0.00053104
-6.68211e-05
0.000497741
-1.89212e-05
0.000434538
5.91276e-05
0.000364723
0.000176817
0.00019995
0.00032421
0.000136672
-0.000245015
0.000558162
-5.99953e-06
0.000145743
-1.97607e-05
0.000325954
-3.7099e-05
0.00044323
-5.40484e-05
0.000511788
-6.68945e-05
0.000546205
-7.19783e-05
0.000554825
-6.54549e-05
0.000542325
-4.28958e-05
0.000508481
1.47465e-06
0.000453371
7.09918e-05
0.000365021
0.000175676
0.000260039
0.000330937
4.46885e-05
0.000519655
-5.20463e-05
-0.000536841
0.00081148
-5.11901e-06
0.000150862
-1.67126e-05
0.000337548
-3.06026e-05
0.00045712
-4.27121e-05
0.000523898
-4.90644e-05
0.000552557
-4.55994e-05
0.00055136
-2.79074e-05
0.000524633
8.96025e-06
0.000471614
7.14954e-05
0.000390835
0.000166216
0.000270301
0.00030198
0.000124275
0.000496689
-0.000150021
0.000733651
-0.000289008
-0.000892549
0.00108936
-4.31434e-06
0.000155176
-1.38078e-05
0.000347041
-2.42536e-05
0.000467566
-3.14237e-05
0.000531068
-3.10416e-05
0.000552175
-1.85904e-05
0.000538909
1.10152e-05
0.000495028
6.36625e-05
0.000418966
0.000146683
0.000307815
0.000267787
0.000149197
0.000439264
-4.72023e-05
0.000676426
-0.000387182
0.000968721
-0.000581304
-0.00131738
0.00139355
-3.59925e-06
0.000158776
-1.10808e-05
0.000354523
-1.81055e-05
0.000474591
-2.02422e-05
0.000533204
-1.28613e-05
0.000544794
9.08908e-06
0.000516959
5.1461e-05
0.000452656
0.000121188
0.00034924
0.000227146
0.000201856
0.000377403
-1.05957e-06
0.000589479
-0.000259278
0.000872783
-0.000670486
0.001227
-0.000935517
-0.00181345
0.00172306
-2.98315e-06
0.000161759
-8.55344e-06
0.000360093
-1.2187e-05
0.000478224
-9.18274e-06
0.0005302
5.51469e-06
0.000530097
3.76059e-05
0.000484868
9.38658e-05
0.000396396
0.000182417
0.000260688
0.000314094
7.01789e-05
0.000497101
-0.000184066
0.000754638
-0.000516816
0.00108828
-0.00100413
0.00150938
-0.00135662
-0.00237712
0.00207306
-2.47059e-06
0.000164229
-6.23278e-06
0.000363855
-6.49729e-06
0.000478489
1.79224e-06
0.000521911
2.42092e-05
0.00050768
6.72467e-05
0.00044183
0.000138805
0.000324838
0.000248386
0.000151107
0.000409041
-9.04761e-05
0.000629228
-0.000404253
0.000936415
-0.000824003
0.00132439
-0.00139211
0.00181427
-0.0018465
-0.0029972
0.00243435
-2.06076e-06
0.00016629
-4.1094e-06
0.000365904
-1.00318e-06
0.000475382
1.27711e-05
0.000508136
4.34395e-05
0.000477011
9.84548e-05
0.000386815
0.000187073
0.000236219
0.000320387
1.77932e-05
0.000513646
-0.000283736
0.000776062
-0.000666668
0.00113572
-0.00118366
0.00158039
-0.00183678
0.00213613
-0.00240223
-0.00365502
0.00279395
-1.74717e-06
0.000168037
-2.15483e-06
0.000366312
4.36489e-06
0.000468863
2.39156e-05
0.000488586
6.35246e-05
0.000437402
0.000131821
0.000318518
0.000239657
0.000128384
0.000399899
-0.000142449
0.000629559
-0.000513396
0.000939166
-0.000976275
0.00135214
-0.00159663
0.0018523
-0.00233695
0.00246454
-0.00301447
-0.00432698
0.0031365
-1.51793e-06
-3.00766e-07
0.000365094
9.71291e-06
0.000458849
3.54447e-05
0.000462854
8.48852e-05
0.000387962
0.000168078
0.000235326
0.000297693
-1.23193e-06
0.000488463
-0.00033322
0.000758196
-0.000783128
0.00111868
-0.00133676
0.0015832
-0.00206114
0.0021325
-0.00288625
0.00278477
-0.00366674
-0.00498878
0.00344657
1.42194e-06
0.000362315
1.51805e-05
0.000445091
4.76436e-05
0.000430391
0.000108039
0.000327566
0.000208077
0.000135288
0.000362397
-0.000155553
0.000587464
-0.000558287
0.000900392
-0.00109606
0.00131281
-0.00174918
0.0018237
-0.00257203
0.00241022
-0.00347277
0.00308021
-0.00433672
-0.00561958
0.00371102
3.17771e-06
0.000357894
2.09487e-05
0.00042732
6.08568e-05
0.000390483
0.000133588
0.000254835
0.000252749
1.61276e-05
0.00043495
-0.000337754
0.000697857
-0.000821193
0.00105593
-0.00145413
0.00151755
-0.00221081
0.00206558
-0.00312005
0.00267295
-0.00408015
0.00333588
-0.00499965
-0.00620474
0.00392104
5.04601e-06
0.000351704
2.72269e-05
0.000405139
7.54795e-05
0.00034223
0.000162193
0.000168122
0.000303042
-0.000124721
0.000516355
-0.000551068
0.000819861
-0.0011247
0.001223
-0.00185726
0.00172682
-0.00271463
0.00229881
-0.00369205
0.00290848
-0.00468982
0.00354148
-0.00563265
-0.00673635
0.00407308
7.12828e-06
3.42488e-05
0.000378018
9.19432e-05
0.000284536
0.000194541
6.55242e-05
0.000359835
-0.000290015
0.000607242
-0.000798476
0.000952663
-0.00147012
0.00139787
-0.00230247
0.00193287
-0.00324963
0.00251304
-0.00427222
0.00310698
-0.00528376
0.00369265
-0.00621832
-0.0072125
0.00416881
4.22652e-05
0.000345292
0.000110697
0.000216103
0.000231302
-5.50807e-05
0.000423831
-0.000482544
0.000707646
-0.00108229
0.00109419
-0.00185666
0.00157503
-0.00278332
0.00212725
-0.00380184
0.00269942
-0.00484439
0.00326246
-0.0058468
0.0037905
-0.00674636
-0.0076356
0.00421359
5.15343e-05
0.000306156
0.000132188
0.00013545
0.000273075
-0.000195968
0.000495428
-0.000704897
0.000816782
-0.00140364
0.00124102
-0.0022809
0.00174775
-0.00329004
0.00230201
-0.00435611
0.00285194
-0.00539431
0.00337303
-0.00636788
0.00383976
-0.00721309
-0.00801179
0.00421595
6.23107e-05
0.000259673
0.00015683
4.09304e-05
0.000320321
-0.000359458
0.000574577
-0.000959153
0.000932883
-0.00176195
0.00138856
-0.00273657
0.00190905
-0.00381053
0.00245096
-0.00489802
0.00296786
-0.00591122
0.00344047
-0.0068405
0.00384691
-0.00761953
-0.00835622
0.00419134
7.48342e-05
0.000184986
-6.92214e-05
0.0003733
-0.000547773
0.000660651
-0.0012465
0.00105317
-0.00215447
0.0015315
-0.0032149
0.00205274
-0.00433177
0.00257031
-0.00541559
0.00304722
-0.00638812
0.00346957
-0.00726285
0.00382712
-0.00797708
-0.0086851
0.00415601
0.00021693
-0.000196833
0.000431989
-0.000762831
0.000752347
-0.00156686
0.00117403
-0.00257616
0.0016645
-0.00370536
0.00217421
-0.00484148
0.00265879
-0.00590018
0.0030922
-0.00682153
0.00346608
-0.00763674
0.00378932
-0.00830032
-0.00897675
0.00408097
0.000252824
0.000496006
-0.00100601
0.000847666
-0.00191852
0.00129136
-0.00301985
0.00178288
-0.00419689
0.0022708
-0.0053294
0.00271716
-0.00634653
0.00310658
-0.00721095
0.00343816
-0.00796832
0.00372723
-0.00858939
-0.00923681
0.00398729
0.000564551
-0.00127788
0.000944015
-0.00229799
0.00140105
-0.00347688
0.00188318
-0.00467903
0.00234172
-0.00578794
0.00274762
-0.00675243
0.00309525
-0.00755858
0.00338962
-0.0082627
0.00364991
-0.00884968
-0.00947404
0.00388714
0.000636379
-0.00157793
0.00103842
-0.00270003
0.00149948
-0.00393795
0.00196335
-0.00514289
0.00238773
-0.00621232
0.00275336
-0.00711806
0.00306266
-0.00786787
0.0033252
-0.00852524
0.00356129
-0.00908577
-0.00969201
0.00377927
0.000709829
0.00112783
-0.00311803
0.00158389
-0.00439401
0.00202269
-0.00558169
0.00241064
-0.00660027
0.00273787
-0.00744529
0.00301301
-0.00814302
0.00324855
-0.00876078
0.00346434
-0.00930155
-0.00989425
0.00366657
0.00120945
-0.00354455
0.00165252
-0.00483707
0.00206165
-0.00599082
0.0024129
-0.00695152
0.00270464
-0.00773703
0.00294992
-0.0083883
0.00316267
-0.00897353
0.00336135
-0.00950023
-0.010083
0.00355013
0.001281
0.00170459
-0.00526066
0.00208149
-0.00636773
0.00239722
-0.00726725
0.00265691
-0.00799672
0.00287638
-0.00860777
0.00306988
-0.00916703
0.00325391
-0.00968426
-0.01026
0.00343086
0.0017402
0.00208398
-0.0067115
0.00236633
-0.0075496
0.00259755
-0.00822794
0.00279485
-0.00880506
0.00297194
-0.00934412
0.00314316
-0.00985549
-0.0104262
0.0033094
0.00207111
-0.00702256
0.00232277
-0.00780126
0.00252897
-0.00843414
0.00270723
-0.00898332
0.00287015
-0.00950704
0.00302991
-0.0100152
-0.0105825
0.00318617
0.00204498
0.00226886
-0.00802514
0.00245322
-0.0086185
0.00261503
-0.00914513
0.00276549
-0.0096575
0.00291471
-0.0101645
-0.0107292
0.00306147
0.0022066
0.0023719
-0.0087838
0.00251937
-0.0092926
0.00265864
-0.00979677
0.00279797
-0.0103038
-0.0108668
0.00293553
0.00228634
0.00242112
-0.00942737
0.00255011
-0.00992576
0.00267998
-0.0104337
-0.0109954
0.00280852
0.00232091
0.00244027
-0.0100451
0.00256096
-0.0105544
-0.011115
0.00268057
0.0023294
0.00244108
-0.010666
-0.0112257
0.0025518
0.00232048
-0.0113275
0.00242232
0.00229221
0.0113276
0.00229218
0.00221771
0.0101555
0.00232048
0.0106663
0.0112258
0.00242229
0.00221922
0.00955096
0.00232941
0.0100454
0.00244108
0.0105546
0.0111151
0.00255178
0.00232092
0.00942761
0.00244028
0.00992599
0.00256097
0.0104339
0.0109955
0.00268055
0.00228638
0.00878413
0.00242113
0.00929286
0.00255012
0.00979701
0.00267999
0.010304
0.010867
0.0028085
0.00220667
0.0080256
0.00237195
0.00861885
0.00251939
0.00914541
0.00265865
0.00965775
0.00279797
0.0101647
0.0107295
0.00293552
0.0020451
0.00702314
0.00226895
0.00780175
0.00245327
0.00843453
0.00261506
0.00898363
0.0027655
0.0095073
0.00291472
0.0100155
0.0105827
0.00306147
0.00207125
0.0067121
0.00232288
0.00755013
0.00252904
0.00822837
0.00270727
0.0088054
0.00287017
0.0093444
0.00302992
0.00985575
0.0104265
0.00318617
0.00174036
0.00526127
0.00208413
0.00636834
0.00236645
0.00726781
0.00259763
0.00799718
0.00279489
0.00860814
0.00297196
0.00916733
0.00314318
0.00968454
0.0102602
0.0033094
0.00128115
0.00354503
0.00170476
0.00483766
0.00208166
0.00599144
0.00239736
0.0069521
0.00265701
0.00773753
0.00287644
0.0083887
0.00306991
0.00897386
0.00325393
0.00950052
0.0100833
0.00343086
0.0012096
0.00311846
0.00165269
0.00439457
0.00206183
0.00558231
0.00241305
0.00660088
0.00270476
0.00744583
0.00294999
0.00814347
0.00316271
0.00876114
0.00336137
0.00930186
0.00989454
0.00355013
0.000709926
0.00157815
0.00112798
0.00270041
0.00158407
0.00393847
0.00202288
0.0051435
0.00241081
0.00621294
0.002738
0.00711864
0.00301311
0.00786837
0.00324861
0.00852564
0.00346436
0.00908611
0.00969233
0.00366658
0.000636467
0.00127806
0.00103856
0.00229832
0.00149966
0.00347737
0.00196354
0.00467962
0.00238792
0.00578857
0.00275352
0.00675304
0.00306277
0.00755911
0.00332527
0.00826315
0.00356133
0.00885005
0.00947437
0.00377928
0.000292722
0.000343752
0.00056463
0.00100616
0.000944144
0.00191881
0.00140122
0.00302029
0.00188339
0.00419745
0.00234193
0.00533003
0.0027478
0.00634717
0.00309538
0.00721153
0.00338971
0.00796882
0.00364996
0.0085898
0.00923717
0.00388716
0.00025286
0.000196852
0.000496077
0.000762939
0.000847786
0.0015671
0.00129153
0.00257655
0.00178309
0.00370589
0.00227102
0.0048421
0.00271736
0.00590082
0.00310674
0.00682215
0.00343827
0.00763729
0.00372729
0.00830078
0.00897715
0.00398732
0.000216963
6.92234e-05
0.000432052
0.00054785
0.000752455
0.0012467
0.0011742
0.00215481
0.0016647
0.00321538
0.00217444
0.00433237
0.00265901
0.00541625
0.00309238
0.00638877
0.00346622
0.00726346
0.00378941
0.00797759
0.00868555
0.004081
7.48481e-05
-0.00025972
0.000185016
-4.09441e-05
0.000373357
0.000359509
0.000660749
0.000959303
0.00105332
0.00176223
0.0015317
0.00273701
0.00205297
0.0038111
0.00257055
0.00489867
0.00304743
0.00591189
0.00346974
0.00684115
0.00382723
0.0076201
0.00835672
0.00415606
6.23244e-05
-0.000306211
0.000156858
-0.000135478
0.000320372
0.000195995
0.000574665
0.00070501
0.000933021
0.00140388
0.00138875
0.00228128
0.00190928
0.00329057
0.00245121
0.00435674
0.0029681
0.00539501
0.00344067
0.00636858
0.00384704
0.00721373
0.00801233
0.00419143
5.15478e-05
-0.000345354
0.000132214
-0.000216143
0.000273121
5.50872e-05
0.000495507
0.000482624
0.000816906
0.00108248
0.0012412
0.00185698
0.00174798
0.00278379
0.00230227
0.00380245
0.0028522
0.00484508
0.00337325
0.00584753
0.00383993
0.00674706
0.00763619
0.00421607
9.54519e-06
-0.000343614
4.22785e-05
-0.000378087
0.000110722
-0.000284587
0.000231345
-6.55355e-05
0.000423901
0.000290067
0.000707758
0.000798621
0.00109435
0.00147039
0.00157525
0.00230289
0.00212751
0.00325019
0.0026997
0.00427289
0.00326272
0.0052845
0.00379069
0.00621908
0.00721314
0.00421374
7.13474e-06
-0.000351772
3.42619e-05
-0.000405215
9.19663e-05
-0.000342291
0.000194579
-0.000168149
0.000359897
0.000124749
0.000607342
0.000551177
0.000952812
0.00112492
0.00139808
0.00185762
0.00193313
0.00271514
0.00251333
0.0036927
0.00310727
0.00469056
0.00369289
0.00563346
0.00673704
0.00416899
5.05255e-06
-0.000357967
2.72397e-05
-0.000427402
7.55012e-05
-0.000390552
0.000162228
-0.000254875
0.000303097
-1.61202e-05
0.000516443
0.000337831
0.000819993
0.000821368
0.00122318
0.00145443
0.00172706
0.00221126
0.0022991
0.00312066
0.00290878
0.00408088
0.00354175
0.0050005
0.00620549
0.0040733
3.18421e-06
-0.000362392
2.0961e-05
-0.000445179
6.0877e-05
-0.000430468
0.00013362
-0.000327618
0.000252798
-0.000135299
0.000435027
0.000155603
0.000697972
0.000558422
0.00105609
0.00109631
0.00151778
0.00174958
0.00206586
0.00257258
0.00267327
0.00347347
0.00333618
0.00433758
0.00562038
0.00392129
1.42823e-06
-0.000365176
1.51921e-05
-0.000458942
4.76621e-05
-0.000462938
0.000108067
-0.000388023
0.00020812
-0.000235351
0.000362463
1.25953e-06
0.000587563
0.000333321
0.000900537
0.000783333
0.00131301
0.0013371
0.00182395
0.00206164
0.00241053
0.00288689
0.00308053
0.00366758
0.00498961
0.0037113
-1.51566e-06
-0.000168081
-2.9429e-07
-0.000366397
9.72373e-06
-0.00046896
3.54613e-05
-0.000488676
8.49098e-05
-0.000437472
0.000168115
-0.000318555
0.000297749
-0.000128375
0.000488547
0.000142523
0.000758319
0.000513561
0.00111886
0.000976557
0.00158343
0.00159707
0.00213279
0.00233753
0.00278509
0.00301527
0.00432783
0.00344687
-1.74497e-06
-0.000166336
-2.1491e-06
-0.000365993
4.37468e-06
-0.000475484
2.39301e-05
-0.000508231
6.35455e-05
-0.000477087
0.000131852
-0.000386861
0.000239702
-0.000236225
0.000399967
-1.77423e-05
0.000629661
0.000283867
0.000939313
0.000666904
0.00135234
0.00118405
0.00185256
0.0018373
0.00246485
0.00240298
0.00365587
0.00313681
-2.05869e-06
-0.000164277
-4.10416e-06
-0.000363948
-9.94544e-07
-0.000478594
1.27834e-05
-0.000522009
4.34567e-05
-0.00050776
9.84792e-05
-0.000441884
0.000187109
-0.000324855
0.00032044
-0.000151073
0.000513726
9.05812e-05
0.00077618
0.000404451
0.00113589
0.000824342
0.00158062
0.00139257
0.00213642
0.00184719
0.00299804
0.00279425
-2.46866e-06
-0.000161808
-6.2281e-06
-0.000360188
-6.48989e-06
-0.000478332
1.80232e-06
-0.000530302
2.42226e-05
-0.000530181
6.72651e-05
-0.000484926
0.000138831
-0.000396421
0.000248426
-0.000260668
0.000409101
-7.00939e-05
0.000629316
0.000184235
0.000936545
0.000517113
0.00132457
0.00100454
0.00181451
0.00135724
0.00237792
0.00243463
-2.9814e-06
-0.000158827
-8.54937e-06
-0.00035462
-1.21809e-05
-0.000474701
-9.17492e-06
-0.000533308
5.52444e-06
-0.00054488
3.76185e-05
-0.00051702
9.38834e-05
-0.000452686
0.000182443
-0.000349227
0.000314134
-0.000201785
0.000497161
1.20821e-06
0.000754731
0.000259543
0.00108841
0.000670867
0.00150957
0.000936086
0.0018142
0.00207329
-3.5977e-06
-0.000155229
-1.10774e-05
-0.00034714
-1.81007e-05
-0.000467677
-2.02366e-05
-0.000531172
-1.2855e-05
-0.000552262
9.0964e-06
-0.000538972
5.14705e-05
-0.00049506
0.000121201
-0.000418958
0.000227167
-0.000307751
0.000377437
-0.000149061
0.000589535
4.74444e-05
0.000872864
0.000387538
0.00122712
0.000581826
0.00131809
0.00172323
-4.313e-06
-0.000150916
-1.3805e-05
-0.000337648
-2.425e-05
-0.000457232
-3.14201e-05
-0.000524002
-3.10386e-05
-0.000552643
-1.8588e-05
-0.000551422
1.10174e-05
-0.000524665
6.36652e-05
-0.000471606
0.000146688
-0.000390774
0.000267796
-0.00027017
0.000439287
-0.000124046
0.000676462
0.000150363
0.000968788
0.000289499
0.000893235
0.00139365
-5.11787e-06
-0.000145798
-1.67105e-05
-0.000326056
-3.06002e-05
-0.000443342
-4.27104e-05
-0.000511891
-4.90642e-05
-0.000546289
-4.56012e-05
-0.000554885
-2.79116e-05
-0.000542355
8.95329e-06
-0.000508471
7.14861e-05
-0.000453306
0.000166205
-0.000364888
0.000301971
-0.000259812
0.000496683
-4.43484e-05
0.00073366
5.25221e-05
0.000537512
0.00108938
-5.9986e-06
-0.0001398
-1.97591e-05
-0.000312295
-3.70977e-05
-0.000426004
-5.40485e-05
-0.000494941
-6.68968e-05
-0.000533441
-7.19837e-05
-0.000549799
-6.54644e-05
-0.000548874
-4.29103e-05
-0.000531025
1.45575e-06
-0.000497673
7.09629e-05
-0.000434395
0.000175642
-0.000364491
0.000330895
-0.000199601
0.000519613
-0.000136196
0.000245689
0.000811435
-6.93781e-06
-0.000132862
-2.29058e-05
-0.000296327
-4.36681e-05
-0.000405242
-6.53392e-05
-0.000473269
-8.44405e-05
-0.00051434
-9.76754e-05
-0.000536564
-0.000101697
-0.000544853
-9.27086e-05
-0.000540013
-6.68516e-05
-0.00052353
-1.89622e-05
-0.000482285
5.90743e-05
-0.000442528
0.000176745
-0.000317272
0.000324125
-0.000283576
1.17563e-05
0.000558058
-7.91523e-06
-0.000124947
-2.60973e-05
-0.000278145
-5.02212e-05
-0.000381118
-7.64597e-05
-0.000447031
-0.000101552
-0.000489248
-0.000122536
-0.000515579
-0.000136519
-0.00053087
-0.000140276
-0.000536256
-0.000130657
-0.000533148
-0.00010188
-0.000511062
-5.12071e-05
-0.000493201
3.10917e-05
-0.000399571
0.000145128
-0.000397612
-0.000169185
0.00032607
-8.90845e-06
-0.000116038
-2.92742e-05
-0.000257779
-5.66554e-05
-0.000353737
-8.72668e-05
-0.00041642
-0.000118052
-0.000458462
-0.000146364
-0.000487267
-0.000169726
-0.000507508
-0.000185434
-0.000520548
-0.0001909
-0.000527683
-0.000180991
-0.000520971
-0.000155591
-0.000518601
-9.9102e-05
-0.00045606
-1.83361e-05
-0.000478378
-0.000299061
0.000111539
-9.89373e-06
-0.000106145
-3.23736e-05
-0.0002353
-6.28621e-05
-0.000323248
-9.76046e-05
-0.000381677
-0.000133738
-0.000422329
-0.000168913
-0.000452092
-0.000201042
-0.000475379
-0.000227906
-0.000493684
-0.000247407
-0.000508182
-0.000255263
-0.000513115
-0.000251914
-0.00052195
-0.000221637
-0.000486337
-0.000180323
-0.000519691
-0.000393015
-8.63691e-05
-1.08468e-05
-9.52979e-05
-3.53313e-05
-0.000210815
-6.873e-05
-0.000289849
-0.000107312
-0.000343096
-0.000148395
-0.000381246
-0.000189911
-0.000410575
-0.000230138
-0.000435152
-0.000267309
-0.000456512
-0.00029977
-0.000475721
-0.000324114
-0.000488771
-0.000340764
-0.0005053
-0.000336211
-0.00049089
-0.000326128
-0.000529774
-0.000450076
-0.000269067
-1.17436e-05
-8.35543e-05
-3.80839e-05
-0.000184475
-7.41495e-05
-0.000253784
-0.000116227
-0.000301018
-0.000161804
-0.000335668
-0.000209076
-0.000363304
-0.000256654
-0.000387574
-0.000303197
-0.000409969
-0.000347462
-0.000431456
-0.000386871
-0.000449362
-0.000421709
-0.000470462
-0.000441292
-0.000471307
-0.000458852
-0.000512213
-0.000470042
-0.000438887
-1.25612e-05
-7.09931e-05
-4.0571e-05
-0.000156465
-7.90157e-05
-0.000215339
-0.000124196
-0.000255838
-0.000173755
-0.000286109
-0.000226125
-0.000310934
-0.000280226
-0.000333473
-0.000335099
-0.000355097
-0.00038989
-0.000376665
-0.000442768
-0.000396484
-0.000493949
-0.000419281
-0.000535534
-0.000429722
-0.000577995
-0.000469752
-0.000454692
-0.000593345
-1.32784e-05
-5.77147e-05
-4.27369e-05
-0.000127006
-8.32323e-05
-0.000174844
-0.000131077
-0.000207993
-0.000184051
-0.000233136
-0.000240794
-0.000254191
-0.0003005
-0.000273767
-0.000362547
-0.00029305
-0.000426438
-0.000312774
-0.000490991
-0.000331932
-0.000556477
-0.000353795
-0.000617445
-0.000368754
-0.00068205
-0.000405147
-0.000407094
-0.000729648
-1.38763e-05
-4.38384e-05
-4.45327e-05
-9.63501e-05
-8.67144e-05
-0.000132662
-0.000136744
-0.000157964
-0.000192514
-0.000177365
-0.000252843
-0.000193862
-0.000317152
-0.000209458
-0.000385104
-0.000225098
-0.000456512
-0.000241366
-0.000530739
-0.000257705
-0.000608209
-0.000276325
-0.000685458
-0.000291505
-0.000768986
-0.000321619
-0.000331621
-0.000844459
-1.43393e-05
-2.94991e-05
-4.59171e-05
-6.47723e-05
-8.93909e-05
-8.9188e-05
-0.00014109
-0.000106265
-0.000198998
-0.000119457
-0.000262069
-0.000130791
-0.000329902
-0.000141625
-0.000402386
-0.000152614
-0.000479584
-0.000164167
-0.000561281
-0.000176008
-0.000648095
-0.000189511
-0.000738057
-0.000201544
-0.000836621
-0.000223055
-0.000233907
-0.000934335
-1.46549e-05
-1.48442e-05
-4.68582e-05
-3.2569e-05
-9.12067e-05
-4.48395e-05
-0.000144035
-5.34369e-05
-0.000203386
-6.01052e-05
-0.000268311
-6.58661e-05
-0.00033853
-7.14057e-05
-0.000414086
-7.70585e-05
-0.00049522
-8.30337e-05
-0.000582007
-8.92206e-05
-0.000675236
-9.62811e-05
-0.000773933
-0.000102847
-0.00088297
-0.000114019
-0.000120682
-0.000996195
-1.48149e-05
-4.73342e-05
-9.21239e-05
-0.000145521
-0.0002056
-0.00027146
-0.000342883
-0.00041999
-0.000503115
-0.000592481
-0.000688976
-0.000792122
-0.000906538
-0.00102773
-0.00104523
1.76745e-05
-1.5712e-07
-0.0010639
1.88348e-05
-1.69418e-07
-0.00108336
1.96444e-05
-1.82461e-07
-0.00110347
2.03137e-05
-1.96217e-07
-0.00112418
2.09199e-05
-2.10628e-07
-0.00114545
2.14931e-05
-2.25614e-07
-0.00116726
2.20455e-05
-2.41076e-07
-0.00118958
2.25796e-05
-2.56884e-07
-0.0012124
2.30922e-05
-2.72874e-07
-0.00123569
2.35761e-05
-2.8884e-07
-0.0012594
2.40214e-05
-3.04525e-07
-0.0012835
2.44155e-05
-3.19613e-07
-0.00130791
2.47428e-05
-3.33724e-07
-0.00133255
2.49848e-05
-3.46403e-07
-0.00135731
2.51195e-05
-3.57115e-07
-0.00138206
2.51213e-05
-3.65236e-07
-0.00140665
2.49604e-05
-3.70052e-07
-0.00143089
2.4603e-05
-3.70749e-07
-0.00145453
2.40111e-05
-3.6642e-07
-0.00147732
2.314e-05
-3.56079e-07
-0.00149892
2.19395e-05
-3.38668e-07
-0.00151896
2.03533e-05
-3.13062e-07
-0.001537
1.83193e-05
-2.781e-07
-0.00155253
1.57694e-05
-2.32604e-07
-0.00156499
1.26296e-05
-1.75371e-07
-0.0015737
8.81935e-06
-1.0517e-07
-0.00157793
4.2535e-06
-2.12221e-08
-0.00157689
-1.1143e-06
7.39286e-08
-0.00156987
-7.20574e-06
1.85167e-07
-0.00155587
-1.43091e-05
3.09596e-07
-0.00153387
-2.24514e-05
4.44991e-07
-0.00150277
-3.16857e-05
5.88414e-07
-0.00146143
-4.20755e-05
7.3507e-07
-0.00140863
-5.36807e-05
8.7799e-07
-0.00134301
-6.66266e-05
1.00739e-06
-0.00126308
-8.1041e-05
1.10927e-06
-0.00116685
-9.73947e-05
1.16516e-06
-0.00105096
-0.000117041
1.15003e-06
-0.000912362
-0.000139624
1.02984e-06
-0.000739327
-0.000173808
7.73901e-07
-0.000526689
-0.000213039
4.0103e-07
-0.000209298
2.52653e-08
-0.00101295
3.44883e-05
-0.00103091
3.67929e-05
-0.00104967
3.84002e-05
-0.00106908
3.97233e-05
-0.00108907
4.09139e-05
-0.00110961
4.20322e-05
-0.00113067
4.31047e-05
-0.00115223
4.41382e-05
-0.00117426
4.51271e-05
-0.00119674
4.60581e-05
-0.00121964
4.69122e-05
-0.00124288
4.76645e-05
-0.00126643
4.82847e-05
-0.00129018
4.87362e-05
-0.00131403
4.89756e-05
-0.00133787
4.89525e-05
-0.00136151
4.86085e-05
-0.00138479
4.78768e-05
-0.00140746
4.66824e-05
-0.00142926
4.4938e-05
-0.00144986
4.25444e-05
-0.0014689
3.93905e-05
-0.00148593
3.53533e-05
-0.00150046
3.02982e-05
-0.00151191
2.40788e-05
-0.00151963
1.65361e-05
-0.00152286
7.49121e-06
-0.00152089
-3.08892e-06
-0.00151294
-1.51548e-05
-0.00149804
-2.92076e-05
-0.00147518
-4.53162e-05
-0.00144327
-6.35921e-05
-0.00140118
-8.41675e-05
-0.0013477
-0.000107163
-0.00128149
-0.000132833
-0.00120111
-0.000161424
-0.0011047
-0.000193798
-0.000989208
-0.000232538
-0.000852013
-0.000276819
-0.000683764
-0.000342057
-0.000473757
-0.000423046
-0.000420518
-0.000949697
4.99409e-05
-0.00096628
5.3376e-05
-0.00098366
5.57793e-05
-0.00100169
5.77514e-05
-0.00102029
5.95124e-05
-0.00103941
6.11516e-05
-0.00105901
6.27126e-05
-0.00107908
6.42094e-05
-0.00109959
6.56362e-05
-0.00112051
6.69751e-05
-0.0011418
6.81983e-05
-0.0011634
6.92697e-05
-0.00118526
7.01441e-05
-0.00120729
7.07676e-05
-0.00122939
7.10759e-05
-0.00125143
7.09939e-05
-0.00127326
7.0435e-05
-0.00129468
6.92998e-05
-0.00131548
6.74765e-05
-0.00133538
6.48376e-05
-0.00135407
6.12347e-05
-0.00137118
5.65028e-05
-0.00138629
5.04586e-05
-0.00139889
4.29014e-05
-0.00140842
3.36131e-05
-0.00141425
2.23597e-05
-0.00141561
8.85084e-06
-0.00141186
-6.83112e-06
-0.00140217
-2.48447e-05
-0.0013856
-4.5782e-05
-0.00136115
-6.97704e-05
-0.00132775
-9.69829e-05
-0.0012843
-0.000127623
-0.0012296
-0.000161858
-0.00116237
-0.000200065
-0.00108123
-0.000242569
-0.000984553
-0.000290472
-0.000869783
-0.000347308
-0.000734815
-0.000411787
-0.000574882
-0.00050199
-0.000370615
-0.000627313
-0.000632309
-0.000857861
6.34655e-05
-0.000872481
6.7996e-05
-0.000887882
7.11801e-05
-0.00090392
7.37893e-05
-0.000920508
7.61002e-05
-0.000937584
7.82276e-05
-0.000955105
8.02344e-05
-0.000973041
8.21454e-05
-0.000991363
8.39575e-05
-0.00101004
8.56498e-05
-0.00102903
8.71874e-05
-0.00104828
8.85235e-05
-0.00106774
8.95995e-05
-0.00108731
9.0344e-05
-0.00110691
9.06726e-05
-0.0011264
9.04865e-05
-0.00114564
8.96711e-05
-0.00116443
8.80955e-05
-0.00118257
8.56115e-05
-0.00119978
8.20529e-05
-0.00121577
7.72248e-05
-0.00123018
7.09083e-05
-0.00124258
6.28608e-05
-0.0012525
5.28163e-05
-0.00125937
4.04855e-05
-0.00126257
2.55604e-05
-0.00126136
7.64284e-06
-0.00125519
-1.30005e-05
-0.00124314
-3.6893e-05
-0.00122432
-6.46034e-05
-0.00119776
-9.63295e-05
-0.00116244
-0.000132307
-0.00111725
-0.000172815
-0.00106105
-0.00021805
-0.000992615
-0.000268504
-0.000910649
-0.000324536
-0.000813774
-0.000387347
-0.000700071
-0.000461012
-0.000567479
-0.000544379
-0.000417338
-0.000652131
-0.000221473
-0.000823178
-0.000838074
-0.000740667
7.46356e-05
-0.000752858
8.01866e-05
-0.000765783
8.41055e-05
-0.000779317
8.73231e-05
-0.000793372
9.01553e-05
-0.000807876
9.27317e-05
-0.000822776
9.51345e-05
-0.000838033
9.74024e-05
-0.000853614
9.95378e-05
-0.000869483
0.000101519
-0.000885601
0.000103306
-0.000901919
0.000104842
-0.000918376
0.000106056
-0.000934894
0.000106862
-0.000951376
0.000107154
-0.000967702
0.000106812
-0.000983725
0.000105694
-0.000999268
0.000103639
-0.00101412
0.000100463
-0.00102803
9.59613e-05
-0.0010407
8.98986e-05
-0.0010518
8.20016e-05
-0.0010609
7.1969e-05