/*--------------------------------*- C++ -*----------------------------------*\
  =========                 |
  \\      /  F ield         | OpenFOAM: The Open Source CFD Toolbox
   \\    /   O peration     | Website:  https://openfoam.org
    \\  /    A nd           | Version:  7
     \\/     M anipulation  |
\*---------------------------------------------------------------------------*/
FoamFile
{
    version     2.0;
    format      ascii;
    class       volVectorField;
    location    "15";
    object      U;
}
// * * * * * * * * * * * * * * * * * * * * * * * * * * * * * * * * * * * * * //

dimensions      [0 1 -1 0 0 0 0];

internalField   nonuniform List<vector> 
8330
(
(-0.0032683 0.00145295 -2.37419e-21)
(-0.0172614 0.00287887 -1.06908e-20)
(-0.0394106 0.00352561 -1.47982e-20)
(-0.0618412 0.0037459 3.97286e-21)
(-0.0843985 0.00374159 4.40587e-21)
(-0.105683 0.00364147 1.02182e-22)
(-0.125726 0.00351064 -7.98702e-21)
(-0.144476 0.00337906 -1.80876e-21)
(-0.162105 0.0032598 -1.14359e-20)
(-0.178654 0.0031451 -1.45922e-21)
(-0.194419 0.00307023 -1.01582e-20)
(-0.209081 0.00295985 -1.06015e-20)
(-0.223989 0.00306823 1.73553e-21)
(-0.237048 0.00294385 -6.33908e-21)
(-0.00339385 0.00435262 -1.92989e-21)
(-0.017418 0.00862556 4.16004e-20)
(-0.0394466 0.0105619 -7.03516e-21)
(-0.0616915 0.011218 -5.1299e-21)
(-0.0840061 0.0111995 -2.29408e-20)
(-0.105 0.0108921 1.03184e-20)
(-0.1247 0.0104907 9.96049e-21)
(-0.143043 0.0100845 3.08601e-20)
(-0.160196 0.00971254 -4.39623e-21)
(-0.17617 0.00934974 -1.07762e-20)
(-0.191281 0.00910514 1.77967e-20)
(-0.205081 0.00873663 1.61051e-20)
(-0.219112 0.00904317 1.75611e-20)
(-0.230679 0.00859614 1.66423e-20)
(-0.00364265 0.00719839 2.62287e-21)
(-0.0177294 0.0142824 -5.78361e-20)
(-0.0395198 0.0174992 1.0564e-20)
(-0.0613958 0.0185899 -4.66207e-20)
(-0.083228 0.018557 -2.79235e-20)
(-0.103644 0.01804 2.88113e-21)
(-0.122661 0.0173626 -1.34176e-21)
(-0.140198 0.0166734 -3.06739e-20)
(-0.156407 0.0160379 4.11447e-20)
(-0.171241 0.0154087 1.06448e-20)
(-0.185067 0.0149788 6.76976e-21)
(-0.197157 0.0142902 -5.20906e-20)
(-0.209497 0.0147941 2.39077e-20)
(-0.21813 0.0138611 1.43982e-20)
(-0.0040099 0.00995588 6.92273e-21)
(-0.018192 0.0197915 -2.44385e-20)
(-0.0396314 0.0242729 1.14868e-20)
(-0.060961 0.0257958 2.04712e-20)
(-0.0820764 0.0257479 -5.72574e-21)
(-0.101634 0.0250172 -5.73179e-20)
(-0.119636 0.0240554 6.51772e-20)
(-0.135975 0.0230697 7.83708e-20)
(-0.150789 0.0221535 8.24122e-21)
(-0.163938 0.0212288 -1.78858e-20)
(-0.175889 0.0205911 3.33631e-20)
(-0.185447 0.0194829 2.31349e-20)
(-0.195398 0.0201889 -2.49832e-20)
(-0.199751 0.0185061 -9.72768e-20)
(-0.00448866 0.012593 4.60662e-20)
(-0.0188001 0.0250975 -9.07588e-21)
(-0.0397835 0.0308206 5.78373e-20)
(-0.0603964 0.032771 -1.06428e-20)
(-0.0805686 0.0327069 5.66016e-20)
(-0.0989947 0.0317572 -1.97368e-20)
(-0.115662 0.0304996 -5.13559e-20)
(-0.130428 0.0291997 -1.69726e-20)
(-0.143416 0.0279804 -3.13336e-20)
(-0.154355 0.0267223 4.23835e-20)
(-0.163902 0.0258519 -6.44005e-20)
(-0.170134 0.024193 8.53623e-20)
(-0.177152 0.0251185 -1.06511e-20)
(-0.175995 0.0223374 8.54686e-20)
(-0.00507009 0.0150809 -3.41263e-20)
(-0.0195466 0.0301489 8.43199e-20)
(-0.0399785 0.0370826 -6.48411e-20)
(-0.0597139 0.0394533 4.08392e-20)
(-0.0787264 0.0393706 3.61682e-20)
(-0.0957593 0.0381948 5.76001e-20)
(-0.110784 0.0366276 5.50969e-20)
(-0.123616 0.0349923 -4.09863e-20)
(-0.134376 0.0334438 1.15454e-20)
(-0.142606 0.0318086 -7.11179e-20)
(-0.149286 0.030682 4.2058e-20)
(-0.151416 0.0283201 -1.02841e-19)
(-0.155129 0.0295013 -4.79412e-21)
(-0.147347 0.0252161 -3.09962e-20)
(-0.00574391 0.0173943 -8.84823e-21)
(-0.0204228 0.0348989 2.88355e-21)
(-0.0402187 0.0430027 7.71491e-20)
(-0.0589271 0.0457826 -3.31768e-20)
(-0.0765748 0.0456773 -4.65199e-20)
(-0.0919647 0.044267 -7.71096e-20)
(-0.105053 0.0423744 -4.13546e-20)
(-0.115611 0.04038 -1.16127e-20)
(-0.123764 0.0384739 8.56964e-20)
(-0.128805 0.036415 1.12542e-20)
(-0.13223 0.0350124 1.02694e-20)
(-0.129478 0.0317904 1.47957e-19)
(-0.129679 0.0332818 -1.24659e-20)
(-0.114233 0.0270795 2.7532e-20)
(-0.00649873 0.0195124 -1.50055e-21)
(-0.0214191 0.0393061 -1.88295e-20)
(-0.0405064 0.0485292 -1.01113e-20)
(-0.0580503 0.0517021 -5.91123e-20)
(-0.07414 0.0515675 -3.07553e-20)
(-0.0876494 0.0499129 1.13096e-19)
(-0.0985238 0.0476776 -4.08947e-20)
(-0.106479 0.0452994 -1.75078e-20)
(-0.111674 0.0430056 -6.83712e-21)
(-0.113057 0.0404779 -5.35198e-20)
(-0.112905 0.0387808 -4.27695e-20)
(-0.104467 0.0345622 -1.18662e-19)
(-0.101067 0.0364044 -8.89144e-20)
(-0.0769336 0.0279903 6.07839e-20)
(-0.00732259 0.0214193 -5.01128e-20)
(-0.0225245 0.0433352 8.9521e-20)
(-0.040843 0.053615 2.03456e-20)
(-0.0570971 0.0571583 7.13663e-20)
(-0.0714482 0.0569848 4.0291e-21)
(-0.0828514 0.0550744 -1.18652e-20)
(-0.0912454 0.052478 -8.28721e-21)
(-0.0962827 0.0496914 1.7387e-19)
(-0.0981888 0.046979 -1.92527e-19)
(-0.095443 0.0439436 8.49708e-21)
(-0.0914406 0.0419253 1.68996e-20)
(-0.076476 0.036646 8.72322e-20)
(-0.0693946 0.0387075 -1.05551e-19)
(-0.0355589 0.0282243 5.26645e-20)
(-0.00820342 0.023104 -1.08639e-19)
(-0.0237274 0.0469575 -3.78446e-20)
(-0.041229 0.0582188 6.8123e-21)
(-0.0560799 0.0621022 2.19398e-20)
(-0.0685226 0.061876 -1.44628e-19)
(-0.0776037 0.0596964 4.47904e-20)
(-0.08326 0.0567202 -3.79671e-20)
(-0.0850702 0.053502 -1.19027e-19)
(-0.0833657 0.0503399 8.44557e-20)
(-0.076006 0.0467713 4.71296e-20)
(-0.0678776 0.044362 3.35966e-20)
(-0.0455758 0.0381637 1.51755e-19)
(-0.0345041 0.0398348 1.62896e-19)
(0.00987912 0.0281603 -4.82597e-20)
(-0.00912952 0.0245606 1.22068e-19)
(-0.0250156 0.050151 -1.17753e-19)
(-0.0416627 0.0623051 9.61558e-20)
(-0.0550074 0.0664893 -1.53139e-19)
(-0.0653815 0.0661917 2.56215e-21)
(-0.0719306 0.0637279 -1.37713e-19)
(-0.0745949 0.0603529 -4.45001e-20)
(-0.0728646 0.0566834 9.76534e-20)
(-0.067223 0.053042 1.20883e-19)
(-0.0547489 0.0489526 7.65273e-20)
(-0.0421007 0.0459514 4.46205e-22)
(-0.0117975 0.0393179 -1.98978e-19)
(0.00379709 0.0399461 8.86803e-20)
(0.0602679 0.0276179 -8.73032e-20)
(-0.01009 0.0257885 -4.24094e-20)
(-0.0263765 0.0529011 -8.26202e-20)
(-0.0421401 0.0658447 -1.09801e-19)
(-0.0538837 0.0702803 2.3082e-19)
(-0.0620344 0.069887 1.72677e-19)
(-0.0658431 0.067122 1.16954e-19)
(-0.0652555 0.0633295 1.58762e-19)
(-0.0596543 0.0591936 -9.94494e-20)
(-0.0497109 0.0550338 -1.79509e-19)
(-0.0316463 0.0505424 -1.77464e-19)
(-0.0138485 0.0466099 1.58963e-19)
(0.0253455 0.0399631 1.13474e-19)
(0.0453455 0.0396092 -9.83949e-20)
(0.116936 0.0264827 -2.51323e-20)
(-0.0110753 0.0267916 1.31313e-19)
(-0.0277969 0.0551996 1.28059e-19)
(-0.0426539 0.0688151 -5.33563e-20)
(-0.0527057 0.0734419 1.46289e-19)
(-0.0584794 0.0729224 -8.33383e-20)
(-0.0593331 0.0698372 -1.56554e-19)
(-0.0552173 0.0656104 -8.53079e-20)
(-0.0453868 0.0609985 6.54926e-20)
(-0.0306684 0.0562368 1.07855e-19)
(-0.00654177 0.0515444 -1.3937e-20)
(0.0170381 0.0464699 -7.76079e-20)
(0.0666957 0.0399195 -1.39973e-19)
(0.0905355 0.0388217 -8.44533e-22)
(0.180998 0.0252314 7.31209e-20)
(-0.0120771 0.0275782 -4.42732e-20)
(-0.0292631 0.0570455 8.30596e-20)
(-0.043192 0.0712008 1.23827e-19)
(-0.051461 0.075947 -1.93945e-19)
(-0.0546985 0.0752643 2.9452e-19)
(-0.0523672 0.071839 9.24101e-20)
(-0.0444158 0.067164 1.64748e-19)
(-0.0299702 0.0620809 -1.37486e-19)
(-0.00989522 0.0566809 1.82825e-19)
(0.0209948 0.0518616 1.64931e-19)
(0.0509098 0.0456345 -4.0046e-20)
(0.112961 0.039478 -9.22106e-20)
(0.140199 0.0372538 8.39061e-20)
(0.253604 0.0243258 1.36664e-20)
(-0.0130892 0.0281605 -1.20095e-19)
(-0.0307606 0.0584436 3.44983e-20)
(-0.0437368 0.0729928 6.09771e-20)
(-0.0501253 0.0777757 7.31513e-20)
(-0.0506535 0.0768865 -2.12682e-19)
(-0.0448798 0.0731007 -2.29986e-20)
(-0.032732 0.0679695 -4.12709e-20)
(-0.0132025 0.0624293 1.94218e-19)
(0.0128557 0.0564386 -3.82824e-20)
(0.0514381 0.0515192 1.00912e-19)
(0.0884959 0.0440432 -3.60816e-20)
(0.164866 0.0390577 1.82756e-19)
(0.195443 0.0348067 -3.34102e-20)
(0.335641 0.0241344 -7.10623e-20)
(-0.0141068 0.0285535 1.97322e-20)
(-0.0322739 0.0594044 1.4838e-19)
(-0.0442637 0.0741895 -8.89416e-20)
(-0.0486598 0.0789155 7.18092e-20)
(-0.046281 0.0777715 -9.22427e-20)
(-0.0367656 0.0736057 2.65109e-20)
(-0.0199925 0.068019 -1.13115e-19)
(0.00520997 0.0620417 -9.99031e-20)
(0.0380285 0.0555101 -3.17191e-19)
(0.0853398 0.0506926 -2.29144e-19)
(0.130769 0.0417326 -1.35146e-19)
(0.223105 0.0390067 -2.8574e-19)
(0.257717 0.0317205 -7.93324e-20)
(0.427273 0.0249694 -1.96981e-21)
(-0.015127 0.0287747 -1.3521e-19)
(-0.0337858 0.0599431 -3.56341e-19)
(-0.0447393 0.0747959 -1.70373e-19)
(-0.0470077 0.0793624 -2.33512e-19)
(-0.0414872 0.0779114 2.39334e-19)
(-0.027871 0.0733499 -3.76114e-20)
(-0.00595181 0.067323 -4.53799e-20)
(0.0256446 0.0609592 -2.29521e-19)
(0.0662132 0.0539409 2.99457e-19)
(0.123396 0.049546 1.17995e-19)
(0.178912 0.0389431 1.69794e-19)
(0.288154 0.0395372 4.25701e-20)
(0.328699 0.0286218 2.28431e-19)
(0.527515 0.027096 -1.42559e-19)
(-0.0161485 0.0288427 1.58832e-19)
(-0.0352764 0.0600789 -5.46575e-20)
(-0.0451201 0.0748233 -1.62304e-19)
(-0.0450914 0.0791209 -1.1696e-20)
(-0.036143 0.07731 3.56369e-20)
(-0.0179862 0.0723443 1.45042e-19)
(0.00972032 0.0659121 1.2349e-20)
(0.0485883 0.0592523 6.42887e-20)
(0.0981282 0.0518511 -3.62717e-19)
(0.166415 0.04823 3.65491e-20)
(0.234222 0.0361566 -9.83937e-22)
(0.360142 0.0406848 1.27531e-19)
(0.409835 0.0264873 -3.28693e-20)
(0.633951 0.0307386 1.21544e-19)
(-0.0171709 0.0287766 -5.09168e-20)
(-0.0367227 0.0598337 9.77852e-20)
(-0.0453504 0.0742895 3.85611e-19)
(-0.0428089 0.0782054 1.67362e-19)
(-0.0300779 0.0759844 -9.27007e-20)
(-0.0068392 0.0706187 -1.71852e-20)
(0.0274437 0.0638434 -1.57734e-19)
(0.0746427 0.0570254 2.17286e-19)
(0.134602 0.0494356 1.84532e-19)
(0.215263 0.0468935 -1.92169e-19)
(0.297863 0.0340716 -3.46323e-20)
(0.43883 0.0423748 4.64353e-20)
(0.501571 0.0263828 -1.39414e-19)
(0.74279 0.0360495 -1.29213e-19)
(-0.0181942 0.028595 -4.56999e-20)
(-0.0380963 0.0592304 -2.11377e-20)
(-0.0453611 0.073219 4.02965e-20)
(-0.0400314 0.07664 -1.74965e-19)
(-0.0230764 0.0739663 1.40871e-20)
(0.00591069 0.068225 -2.56154e-19)
(0.0477294 0.0612066 -6.66627e-21)
(0.104515 0.0544255 -1.63743e-19)
(0.176526 0.0469715 -4.82141e-20)
(0.270788 0.0457152 1.23876e-19)
(0.370474 0.0334595 -1.36964e-19)
(0.523622 0.044611 -3.27321e-19)
(0.60258 0.0290757 1.8049e-19)
(0.84936 0.0430066 2.78539e-19)
(-0.0192188 0.0283149 -3.86849e-20)
(-0.0393625 0.0582918 -2.23703e-20)
(-0.0450673 0.0716423 5.22964e-20)
(-0.0366 0.0744592 3.45217e-19)
(-0.0148738 0.071305 1.15925e-19)
(0.0206749 0.0652402 1.28751e-19)
(0.071175 0.0581291 4.62175e-20)
(0.138989 0.0516489 4.32441e-20)
(0.224764 0.0448144 -1.30348e-21)
(0.333701 0.0449595 -7.67202e-20)
(0.451799 0.0349335 1.41213e-19)
(0.613463 0.0476297 4.12925e-20)
(0.709429 0.034755 -3.05993e-20)
(0.948934 0.0513056 -3.31474e-19)
(-0.0404821 0.0570452 -2.27318e-20)
(-0.044364 0.0695913 -3.33116e-19)
(-0.0323243 0.0717076 -2.09842e-19)
(-0.00515494 0.0680676 -1.30929e-19)
(0.0379338 0.0617708 1.1639e-19)
(0.0984488 0.0547819 1.5658e-19)
(0.178881 0.0489457 3.44442e-20)
(0.280031 0.0433701 -6.83608e-20)
(0.404376 0.0450305 2.40939e-19)
(0.540478 0.0387715 1.95063e-19)
(0.706601 0.0518381 7.67607e-20)
(0.817027 0.0430198 -9.60462e-20)
(1.03758 0.0603666 3.6974e-19)
(-0.0414089 0.0555164 -5.95952e-20)
(-0.043128 0.0671 1.45834e-19)
(-0.0269791 0.0684415 1.62905e-19)
(0.00644566 0.0643417 8.75624e-20)
(0.0582295 0.057955 3.01153e-20)
(0.130261 0.051382 7.1588e-20)
(0.224957 0.0466225 -1.1721e-19)
(0.342742 0.0430504 1.92243e-19)
(0.482567 0.0464443 -1.20763e-19)
(0.634112 0.0449013 -1.01775e-19)
(0.800412 0.0575517 -3.50548e-20)
(0.91975 0.0530927 -1.57473e-19)
(1.11275 0.0694835 -3.22299e-19)
(-0.0420843 0.0537244 2.66229e-19)
(-0.0412193 0.0642109 2.00534e-19)
(-0.0203068 0.0647285 -1.78689e-19)
(0.0203396 0.0602354 -3.19543e-20)
(0.0821497 0.0539654 -2.88761e-21)
(0.167322 0.0481946 1.28793e-19)
(0.277828 0.0450399 2.31059e-19)
(0.412847 0.0442267 -1.34011e-19)
(0.567146 0.049689 6.22706e-20)
(0.729543 0.0530073 -1.83414e-19)
(0.891579 0.0647573 8.45369e-20)
(1.01272 0.0640964 2.19787e-19)
(1.17347 0.0780128 -5.48591e-20)
(-0.0424393 0.0516866 1.57841e-19)
(-0.0384776 0.0609695 -1.97056e-19)
(-0.012019 0.0606469 4.11184e-20)
(0.0369771 0.0558789 -5.87832e-20)
(0.110304 0.0500095 1.01055e-19)
(0.210273 0.0455296 -1.61359e-19)
(0.337812 0.0445941 1.94368e-20)
(0.48968 0.0471916 1.36714e-19)
(0.656002 0.0550436 -2.61914e-19)
(0.823265 0.0626338 2.04622e-19)
(0.976684 0.0730936 -1.71425e-19)
(1.09269 0.0752705 1.13405e-20)
(1.22012 0.0854975 3.91899e-19)
(-0.0347223 0.0574233 -2.40663e-19)
(-0.00179935 0.0562857 -1.11287e-19)
(0.0568352 0.051424 -2.01257e-19)
(0.14329 0.0463296 -2.76379e-19)
(0.259605 0.0437312 -1.16255e-19)
(0.404786 0.0456769 -4.84723e-20)
(0.571855 0.0521177 -3.47349e-19)
(0.746228 0.0624711 8.77061e-20)
(0.911902 0.0732392 3.66781e-21)
(1.0529 0.0820277 1.80259e-19)
(1.15819 0.0860878 -1.32649e-19)
(1.25408 0.0916416 4.38359e-20)
(-0.0297549 0.0536221 4.43201e-19)
(0.0106912 0.0517447 -4.51564e-20)
(0.080401 0.0470451 1.02969e-19)
(0.181645 0.0432003 -1.21551e-19)
(0.315559 0.0431585 1.82839e-19)
(0.478055 0.0486135 -1.27425e-20)
(0.657291 0.0590116 3.08751e-20)
(0.834572 0.0716358 1.26129e-19)
(0.99268 0.0842457 -5.96468e-20)
(1.11847 0.0910778 -1.95938e-19)
(1.20929 0.0962315 -2.02874e-20)
(1.27727 0.0961913 -3.10776e-19)
(-0.023361 0.0496182 -3.86814e-19)
(0.025807 0.0471349 3.79447e-19)
(0.108151 0.0429385 4.80701e-20)
(0.225788 0.0409232 -2.95748e-20)
(0.378007 0.0441534 -2.92613e-19)
(0.556293 0.0535924 -2.05234e-19)
(0.743393 0.0676858 1.97483e-19)
(0.917972 0.0820095 5.20513e-20)
(1.06375 0.0951238 4.84304e-20)
(1.17276 0.0999439 3.2091e-19)
(1.24711 0.105382 -1.91824e-19)
(1.29198 0.0987849 2.47504e-20)
(-0.015313 0.0454666 4.28047e-19)
(0.043909 0.0425785 -1.34644e-19)
(0.140521 0.0393228 -7.7386e-20)
(0.27595 0.0398155 3.74403e-19)
(0.446362 0.046995 -5.13274e-20)
(0.637594 0.0606126 2.73275e-19)
(0.827406 0.077778 -2.08419e-19)
(0.994009 0.093003 -6.08011e-20)
(1.12428 0.105486 -5.65745e-20)
(1.21603 0.108457 -2.73886e-19)
(1.27361 0.112941 1.39209e-19)
(1.30132 0.099396 -1.87575e-20)
(0.0653541 0.0382108 1.04176e-19)
(0.177877 0.0364382 1.01623e-19)
(0.332093 0.0401885 -2.5805e-19)
(0.519527 0.051848 1.34674e-19)
(0.71966 0.0694727 1.4086e-20)
(0.906803 0.0888215 2.33413e-19)
(1.06114 0.104081 8.17452e-21)
(1.17427 0.11513 1.3326e-19)
(1.24917 0.116377 1.92604e-19)
(1.2913 0.118404 3.16928e-21)
(1.31294 0.105455 2.9083e-19)
(0.0904821 0.0341817 -1.83611e-19)
(0.220468 0.0345435 -1.89062e-19)
(0.393836 0.0423144 -1.39202e-19)
(0.595929 0.0587196 1.03328e-19)
(0.800103 0.0798116 7.67556e-20)
(0.979602 0.100333 5.75394e-20)
(1.1187 0.114836 -7.46954e-20)
(1.21434 0.123971 4.52922e-20)
(1.27349 0.123376 -6.93002e-20)
(1.30362 0.123517 1.44027e-19)
(1.31812 0.109678 -6.645e-21)
(0.26838 0.0339081 4.90819e-20)
(0.460411 0.0463818 2.88982e-19)
(0.673665 0.0674489 1.45657e-19)
(0.87674 0.091184 2.94942e-20)
(1.04452 0.111889 -1.67971e-19)
(1.16675 0.125007 8.60926e-20)
(1.24552 0.131956 2.54035e-20)
(1.29079 0.129633 -7.77357e-20)
(1.31106 0.127926 -1.46448e-20)
(1.31991 0.11383 -2.94693e-19)
(0.32148 0.0347934 2.13337e-19)
(0.530663 0.0524561 3.07556e-20)
(0.750716 0.0777361 -1.37247e-19)
(0.947838 0.103141 2.86636e-20)
(1.10097 0.123164 -1.16696e-19)
(1.20586 0.134452 -1.00983e-20)
(1.26905 0.139132 -6.892e-20)
(1.30243 0.135201 -3.48635e-20)
(1.31498 0.131941 -1.71987e-19)
(1.31958 0.117572 1.82199e-20)
(0.379369 0.0374233 -3.06694e-19)
(0.603129 0.0604594 -3.55375e-19)
(0.825184 0.0892024 -1.40188e-19)
(1.01222 0.115289 -1.52848e-19)
(1.14894 0.133937 4.95179e-20)
(1.23692 0.143122 -8.82988e-20)
(1.28621 0.145576 -7.57028e-20)
(1.30972 0.140217 -7.58675e-21)
(1.31631 0.135625 -9.6301e-20)
(1.31757 0.121115 2.40306e-19)
(0.676179 0.0701843 3.15849e-19)
(0.895479 0.101455 -1.24174e-19)
(1.06925 0.127319 -7.3764e-20)
(1.18883 0.144082 5.65538e-20)
(1.26096 0.151037 1.66096e-19)
(1.2982 0.151391 4.34744e-20)
(1.31369 0.144794 -8.15552e-20)
(1.31577 0.139087 5.25879e-20)
(1.31457 0.1245 -5.33656e-20)
(0.748188 0.0813344 1.02095e-19)
(0.960423 0.114136 -3.98855e-23)
(1.11877 0.139011 -9.00741e-20)
(1.22132 0.153548 -5.67438e-20)
(1.27906 0.158259 9.80821e-20)
(1.30607 0.156689 5.30878e-20)
(1.31518 0.149044 1.05118e-19)
(1.31391 0.142394 2.38404e-19)
(1.31086 0.127798 -1.26089e-19)
(1.01927 0.126951 2.73628e-19)
(1.16099 0.150227 1.64046e-19)
(1.24723 0.162339 8.63849e-20)
(1.29221 0.164874 -3.35839e-19)
(1.31074 0.161576 -6.59039e-20)
(1.31486 0.153058 -5.84859e-20)
(1.31111 0.145608 4.51531e-21)
(1.3067 0.131045 -3.79045e-21)
(1.19637 0.160891 -1.7387e-19)
(1.26742 0.170495 -1.83366e-19)
(1.30134 0.170977 1.31733e-19)
(1.31294 0.166153 1.58088e-20)
(1.31322 0.156913 1.1923e-19)
(1.30768 0.148769 -3.96583e-20)
(1.30224 0.13427 1.25272e-19)
(1.22548 0.17098 2.09691e-19)
(1.28275 0.178083 2.98179e-19)
(1.30724 0.176665 -7.15435e-21)
(1.31327 0.170504 8.08962e-21)
(1.31063 0.160667 -1.5066e-19)
(1.30379 0.151911 -8.1535e-20)
(1.29758 0.137491 -5.00704e-20)
(1.294 0.185177 -4.27753e-20)
(1.31058 0.182028 -1.34963e-19)
(1.3122 0.174702 6.71993e-20)
(1.30735 0.164365 -5.87481e-20)
(1.29958 0.155054 9.30925e-20)
(1.29278 0.140719 7.04213e-20)
(1.31192 0.187147 2.09376e-19)
(1.31008 0.178806 -7.33055e-20)
(1.30358 0.168041 4.78756e-20)
(1.29513 0.158212 -4.27288e-20)
(1.28788 0.14396 -6.57831e-20)
(1.30716 0.18286 -1.20738e-19)
(1.29943 0.171716 8.79584e-20)
(1.2905 0.161393 4.00245e-20)
(1.28288 0.147218 2.13915e-20)
(1.29501 0.175406 -6.99555e-20)
(1.28573 0.164602 2.94092e-20)
(1.27781 0.150491 6.00669e-20)
(1.28082 0.16784 -7.90542e-20)
(1.27267 0.153779 1.28964e-20)
(1.26745 0.157077 -4.9722e-20)
(1.26746 -0.15707 -2.39796e-20)
(1.29039 -0.179111 -4.57361e-20)
(1.28084 -0.167834 -8.06954e-20)
(1.27268 -0.153772 3.10466e-20)
(1.30368 -0.186894 1.80087e-19)
(1.29504 -0.175399 -6.97123e-20)
(1.28575 -0.164595 6.33587e-20)
(1.27783 -0.150484 4.51801e-20)
(1.30719 -0.182854 -1.09536e-19)
(1.29946 -0.171709 9.7801e-20)
(1.29053 -0.161385 1.60413e-20)
(1.2829 -0.14721 3.87433e-20)
(1.31196 -0.187145 6.00203e-21)
(1.3101 -0.178799 -3.6201e-20)
(1.3036 -0.168033 5.16945e-20)
(1.29516 -0.158203 -5.34365e-20)
(1.28789 -0.143952 -7.56682e-20)
(1.29407 -0.18518 -2.65259e-19)
(1.31063 -0.182025 -9.11087e-20)
(1.31223 -0.174696 2.87217e-20)
(1.30738 -0.164357 -2.69561e-20)
(1.2996 -0.155045 6.54684e-20)
(1.2928 -0.14071 8.40465e-20)
(1.22558 -0.170988 4.59399e-20)
(1.28283 -0.178085 2.82466e-19)
(1.30729 -0.176662 1.76973e-20)
(1.31331 -0.170497 -1.38692e-22)
(1.31066 -0.160658 -1.07626e-19)
(1.30381 -0.151901 -8.56403e-20)
(1.2976 -0.137481 -7.22035e-20)
(1.19646 -0.160899 -1.74505e-19)
(1.2675 -0.170499 -1.88272e-19)
(1.3014 -0.170975 1.8313e-19)
(1.31298 -0.166147 2.5189e-20)
(1.31325 -0.156903 9.49434e-20)
(1.3077 -0.148759 4.21712e-21)
(1.30226 -0.134259 6.20053e-20)
(1.01939 -0.126961 -2.2314e-20)
(1.1611 -0.150234 2.24953e-19)
(1.24732 -0.162342 1.28255e-20)
(1.29227 -0.164872 -3.23437e-19)
(1.31078 -0.161571 -3.64282e-20)
(1.31489 -0.153049 -2.64374e-20)
(1.31114 -0.145597 -1.21791e-20)
(1.30672 -0.131033 3.90456e-21)
(0.748286 -0.0813432 -2.13751e-19)
(0.960534 -0.114146 -2.40675e-21)
(1.11888 -0.139019 -3.91414e-20)
(1.22141 -0.153552 7.02797e-22)
(1.27913 -0.158258 6.29035e-20)
(1.30612 -0.156683 5.44275e-20)
(1.31522 -0.149034 1.07511e-19)
(1.31393 -0.142382 2.22132e-19)
(1.31088 -0.127786 -1.27777e-19)
(0.676271 -0.070192 2.72595e-19)
(0.895588 -0.101464 -1.55327e-19)
(1.06936 -0.127327 -3.21836e-20)
(1.18893 -0.144086 9.26065e-20)
(1.26104 -0.151036 1.69404e-19)
(1.29825 -0.151386 1.04694e-20)
(1.31373 -0.144784 -6.00961e-20)
(1.3158 -0.139074 7.40657e-20)
(1.31459 -0.124486 -9.41343e-20)
(0.379423 -0.0374274 -1.12236e-19)
(0.603213 -0.0604661 -4.18596e-19)
(0.82529 -0.0892106 -1.12585e-19)
(1.01233 -0.115296 -1.37454e-19)
(1.14904 -0.133941 3.62664e-20)
(1.23701 -0.143121 -7.236e-20)
(1.28628 -0.145571 -4.57407e-20)
(1.30976 -0.140207 -8.72378e-21)
(1.31635 -0.135612 -8.85205e-20)
(1.31759 -0.1211 1.91862e-19)
(0.321525 -0.0347973 2.07651e-19)
(0.530738 -0.0524618 7.5878e-20)
(0.750817 -0.0777434 -1.70809e-19)
(0.947949 -0.103148 6.29236e-20)
(1.10108 -0.123168 -1.21229e-19)
(1.20595 -0.134451 -1.09496e-19)
(1.26912 -0.139127 2.69034e-20)
(1.30249 -0.135191 -3.53565e-20)
(1.31502 -0.131928 -1.7439e-19)
(1.31961 -0.117556 2.32581e-20)
(0.119615 -0.0306632 2.85718e-20)
(0.268418 -0.0339123 5.97054e-20)
(0.460478 -0.0463869 2.8294e-19)
(0.673759 -0.0674553 1.60985e-19)
(0.87685 -0.0911904 -5.53555e-20)
(1.04463 -0.111894 -1.0043e-19)
(1.16685 -0.125007 3.07767e-20)
(1.2456 -0.131951 -1.21784e-21)
(1.29085 -0.129623 -4.04697e-21)
(1.3111 -0.127912 -1.22982e-20)
(1.31995 -0.113813 -3.26279e-19)
(0.0904938 -0.0341874 -1.50583e-19)
(0.220499 -0.0345483 -2.64194e-19)
(0.393894 -0.0423192 -3.39136e-20)
(0.596014 -0.0587253 7.38262e-20)
(0.800209 -0.0798173 1.1272e-20)
(0.979715 -0.100337 8.41864e-20)
(1.11881 -0.114836 -5.55961e-20)
(1.21443 -0.123966 -4.97467e-20)
(1.27356 -0.123366 7.02907e-20)
(1.30367 -0.123503 8.22846e-20)
(1.31816 -0.10966 -4.67761e-20)
(0.0653629 -0.0382178 5.74696e-20)
(0.177902 -0.0364439 1.42712e-19)
(0.332142 -0.0401935 -2.85506e-19)
(0.519604 -0.0518531 1.10467e-19)
(0.719761 -0.0694776 1.29808e-20)
(0.906916 -0.0888249 2.56639e-19)
(1.06125 -0.104081 9.67835e-20)
(1.17436 -0.115125 5.7185e-20)
(1.24925 -0.116366 1.46027e-19)
(1.29136 -0.118389 9.0824e-20)
(1.31299 -0.105436 2.55497e-19)
(-0.0153151 -0.0454756 -1.2059e-19)
(0.0439155 -0.0425868 -1.61467e-19)
(0.140542 -0.0393296 -4.84052e-20)
(0.275992 -0.0398208 4.11716e-19)
(0.44643 -0.0469997 -4.23611e-20)
(0.637687 -0.0606168 1.68778e-19)
(0.827517 -0.0777808 -1.63334e-19)
(0.994124 -0.0930026 2.66e-21)
(1.12438 -0.105481 -9.5388e-20)
(1.21612 -0.108447 -3.16929e-19)
(1.27368 -0.112925 1.96458e-19)
(1.30137 -0.0993756 -2.03515e-20)
(-0.0233638 -0.0496284 -4.59714e-19)
(0.0258116 -0.0471445 4.46618e-19)
(0.108168 -0.0429465 4.9493e-20)
(0.225824 -0.0409293 7.69147e-21)
(0.378066 -0.0441581 -2.8356e-19)
(0.556378 -0.053596 -2.37101e-19)
(0.743499 -0.0676879 1.78017e-19)
(0.918088 -0.0820085 5.36393e-21)
(1.06386 -0.0951184 1.07731e-19)
(1.17285 -0.099933 2.77021e-19)
(1.24719 -0.105366 -1.3321e-19)
(1.29203 -0.0987639 2.38046e-20)
(-0.0297583 -0.0536335 4.99903e-19)
(0.0106943 -0.0517556 -1.1391e-19)
(0.0804149 -0.0470543 8.95825e-20)
(0.181675 -0.0432073 -1.00877e-19)
(0.31561 -0.0431635 2.41845e-19)
(0.478131 -0.0486167 -1.4865e-20)
(0.657389 -0.059013 -1.0701e-20)
(0.834686 -0.0716342 2.18093e-19)
(0.992796 -0.08424 -1.38684e-19)
(1.11858 -0.0910665 -1.61606e-19)
(1.20938 -0.0962147 -7.30641e-20)
(1.27733 -0.0961695 -2.84232e-19)
(-0.0424009 -0.0494296 -5.26961e-20)
(-0.0347261 -0.0574359 -2.18101e-19)
(-0.00179745 -0.0562978 -8.79161e-20)
(0.0568464 -0.0514344 -2.21125e-19)
(0.143315 -0.0463376 -3.14554e-19)
(0.259648 -0.0437367 -6.10972e-20)
(0.404852 -0.04568 -4.14129e-20)
(0.571946 -0.0521184 -3.53173e-19)
(0.746338 -0.0624686 7.9321e-20)
(0.912019 -0.0732328 -6.99966e-22)
(1.05302 -0.0820156 1.60612e-19)
(1.15829 -0.0860702 -1.25385e-19)
(1.25415 -0.0916191 -3.22991e-21)
(-0.0424455 -0.0516979 1.86684e-19)
(-0.0384818 -0.0609832 -2.13853e-19)
(-0.0120182 -0.0606601 4.03338e-20)
(0.0369861 -0.0558903 -1.27724e-20)
(0.110325 -0.0500184 7.12649e-20)
(0.210309 -0.0455357 -1.45866e-19)
(0.337869 -0.0445972 6.00583e-21)
(0.48976 -0.0471918 1.41146e-19)
(0.656104 -0.0550401 -2.64999e-19)
(0.823381 -0.0626266 1.22456e-19)
(0.976801 -0.0730805 -8.80891e-20)
(1.0928 -0.075252 1.44748e-20)
(1.2202 -0.0854742 3.53278e-19)
(-0.0420907 -0.0537367 2.88218e-19)
(-0.0412239 -0.0642256 1.83307e-19)
(-0.0203069 -0.0647428 -2.54238e-19)
(0.0203466 -0.0602478 3.00228e-20)
(0.0821666 -0.0539751 -7.69603e-20)
(0.167353 -0.0482013 1.79569e-19)
(0.277877 -0.0450432 2.6668e-19)
(0.412918 -0.0442265 -1.37947e-19)
(0.56724 -0.0496846 6.70759e-20)
(0.729655 -0.0529991 -1.7733e-19)
(0.891697 -0.0647429 -3.35551e-21)
(1.01284 -0.0640767 2.19384e-19)
(1.17356 -0.0779885 -1.23849e-20)
(-0.0414154 -0.0555296 -1.04033e-19)
(-0.0431329 -0.0671156 1.83778e-19)
(-0.0269799 -0.0684567 1.99603e-19)
(0.00645089 -0.0643549 7.55379e-20)
(0.0582432 -0.0579655 -5.6456e-20)
(0.130287 -0.0513892 1.81753e-19)
(0.224998 -0.046626 -1.7647e-19)
(0.342803 -0.0430499 2.42622e-19)
(0.48265 -0.0464391 -1.61937e-19)
(0.634216 -0.044892 -1.68009e-19)
(0.800526 -0.0575358 5.51762e-20)
(0.919876 -0.0530713 -2.24541e-19)
(1.11285 -0.0694579 -2.49153e-19)
(-0.0404886 -0.0570592 -7.07727e-21)
(-0.0443692 -0.0696078 -3.05423e-19)
(-0.0323259 -0.0717235 -2.26101e-19)
(-0.00515127 -0.0680814 -1.05511e-19)
(0.0379447 -0.0617817 6.87712e-20)
(0.0984696 -0.0547894 1.24175e-19)
(0.178915 -0.0489494 7.67976e-20)
(0.280083 -0.0433694 -9.40232e-20)
(0.404448 -0.0450247 3.0512e-19)
(0.540573 -0.0387608 1.55947e-19)
(0.706709 -0.0518208 1.04747e-19)
(0.817154 -0.0429962 -6.51555e-20)
(1.03769 -0.0603394 3.8267e-19)
(-0.0192229 -0.0283225 4.8485e-20)
(-0.0393692 -0.0583066 5.3601e-20)
(-0.0450728 -0.0716596 6.11729e-21)
(-0.0366024 -0.0744757 3.0224e-19)
(-0.0148716 -0.0713192 9.31456e-20)
(0.0206832 -0.0652515 1.78698e-19)
(0.0711917 -0.0581369 -4.33248e-20)
(0.139017 -0.0516527 9.45369e-20)
(0.224807 -0.0448133 6.29103e-20)
(0.333762 -0.0449531 -1.16642e-19)
(0.451883 -0.0349212 1.4297e-19)
(0.613562 -0.0476112 4.4706e-20)
(0.70955 -0.0347285 2.65614e-20)
(0.949047 -0.0512762 -4.06939e-19)
(-0.0181984 -0.0286031 -5.30407e-21)
(-0.038103 -0.059246 5.07334e-20)
(-0.0453668 -0.0732368 -6.7707e-20)
(-0.0400344 -0.076657 -9.27172e-20)
(-0.0230755 -0.0739809 -1.56228e-20)
(0.00591669 -0.0682363 -2.98544e-19)
(0.0477422 -0.0612143 9.0393e-20)
(0.104537 -0.0544291 -2.4737e-19)
(0.176561 -0.04697 -6.44706e-20)
(0.270838 -0.0457083 1.95718e-19)
(0.370546 -0.0334452 -1.51552e-19)
(0.52371 -0.0445915 -2.80403e-19)
(0.602691 -0.0290457 1.58948e-19)
(0.849475 -0.0429745 2.92837e-19)
(-0.0171751 -0.0287852 -6.03462e-20)
(-0.0367294 -0.0598499 1.1437e-19)
(-0.0453563 -0.0743079 4.35263e-19)
(-0.0428125 -0.0782226 1.07835e-19)
(-0.0300782 -0.075999 -1.34066e-19)
(-0.00683536 -0.07063 6.64915e-21)
(0.0274531 -0.0638508 -1.04625e-19)
(0.0746597 -0.0570285 1.56408e-19)
(0.13463 -0.0494334 2.43042e-19)
(0.215303 -0.0468858 -1.8796e-19)
(0.297921 -0.0340553 -2.00124e-20)
(0.438906 -0.0423541 1.37648e-20)
(0.501667 -0.0263489 -1.51457e-19)
(0.742902 -0.0360141 -1.58636e-19)
(-0.0161527 -0.0288517 1.71997e-19)
(-0.0352831 -0.0600957 -1.01691e-19)
(-0.0451261 -0.0748421 -1.10572e-19)
(-0.0450955 -0.0791383 -2.98428e-20)
(-0.0361444 -0.0773245 -2.3143e-20)
(-0.0179843 -0.0723553 1.90405e-19)
(0.00972659 -0.0659191 3.86823e-20)
(0.0486005 -0.0592548 4.70556e-20)
(0.0981487 -0.051848 -3.14926e-19)
(0.166446 -0.048221 -4.99177e-20)
(0.234268 -0.0361384 -1.07304e-20)
(0.360205 -0.0406623 2.40886e-19)
(0.409913 -0.0264496 -3.46746e-20)
(0.634055 -0.0306995 8.6499e-20)
(-0.0151311 -0.0287841 -8.71845e-20)
(-0.0337924 -0.0599604 -3.7787e-19)
(-0.0447455 -0.074815 -1.92584e-19)
(-0.0470124 -0.0793799 -2.27469e-19)
(-0.0414897 -0.0779257 2.41201e-19)
(-0.0278709 -0.0733605 -5.02294e-20)
(-0.00594834 -0.0673294 -1.06989e-20)
(0.0256527 -0.0609608 -3.07786e-19)
(0.0662275 -0.0539367 3.37386e-19)
(0.123419 -0.0495356 1.75529e-19)
(0.178946 -0.0389229 1.16712e-19)
(0.288204 -0.0395123 9.19829e-20)
(0.328759 -0.0285808 1.83101e-19)
(0.527605 -0.0270528 -1.18199e-19)
(-0.0141108 -0.0285634 9.65457e-21)
(-0.0322804 -0.0594222 1.47264e-19)
(-0.0442699 -0.0742089 -5.50211e-20)
(-0.0486648 -0.0789329 4.06735e-21)
(-0.0462844 -0.0777855 -7.69915e-20)
(-0.036767 -0.0736158 1.27044e-22)
(-0.0199915 -0.0680246 -7.08181e-20)
(0.00521431 -0.0620422 -4.22158e-20)
(0.0380374 -0.0555045 -3.09213e-19)
(0.0853552 -0.0506804 -3.02651e-19)
(0.130792 -0.0417104 -1.33056e-19)
(0.223142 -0.0389786 -2.29088e-19)
(0.25776 -0.0316765 -9.53199e-20)
(0.427347 -0.0249215 -1.94926e-20)
(-0.013093 -0.0281707 -8.45982e-20)
(-0.0307669 -0.0584618 1.59389e-20)
(-0.043743 -0.0730123 5.42255e-20)
(-0.0501307 -0.0777929 5.9119e-20)
(-0.0506576 -0.0769002 -1.93053e-19)
(-0.0448825 -0.0731101 -2.94216e-20)
(-0.0327331 -0.0679743 -1.8714e-20)
(-0.0132013 -0.0624287 2.3402e-19)
(0.0128599 -0.0564314 -1.15285e-19)
(0.0514469 -0.0515049 1.0454e-19)
(0.0885099 -0.044019 -3.62345e-20)
(0.164891 -0.0390261 2.50159e-19)
(0.195471 -0.0347601 -7.46303e-20)
(0.335696 -0.024081 -3.44375e-20)
(-0.0120809 -0.0275887 -1.34601e-20)
(-0.0292692 -0.057064 4.9416e-20)
(-0.0431982 -0.0712203 1.42899e-19)
(-0.0514665 -0.075964 -2.0773e-19)
(-0.0547033 -0.0752774 3.14433e-19)
(-0.0523711 -0.0718477 1.0021e-19)
(-0.0444186 -0.0671678 1.61424e-19)
(-0.0299717 -0.0620791 -1.82607e-19)
(-0.009895 -0.0566721 2.00489e-19)
(0.0209979 -0.0518452 2.24053e-19)
(0.0509158 -0.0456079 -1.29243e-19)
(0.112975 -0.0394425 -4.82473e-20)
(0.140213 -0.0372043 6.82458e-20)
(0.25364 -0.0242664 6.16428e-20)
(-0.0110788 -0.0268024 1.8558e-19)
(-0.0278028 -0.0552184 9.60196e-20)
(-0.04266 -0.0688347 -4.19386e-20)
(-0.0527114 -0.0734586 1.05581e-19)
(-0.0584846 -0.072935 -9.41495e-20)
(-0.0593378 -0.0698452 -1.23662e-19)
(-0.0552216 -0.0656132 -7.01782e-20)
(-0.0453905 -0.0609954 4.35876e-20)
(-0.0306715 -0.0562265 1.82441e-19)
(-0.0065433 -0.0515256 -8.53467e-20)
(0.0170376 -0.0464409 -8.04016e-20)
(0.0667004 -0.0398801 -1.08918e-19)
(0.0905388 -0.038769 -2.59061e-20)
(0.181016 -0.0251658 1.14241e-19)
(-0.0100934 -0.0257995 -2.55236e-20)
(-0.0263821 -0.05292 -9.03706e-20)
(-0.0421461 -0.0658642 -1.20074e-19)
(-0.0538894 -0.0702968 2.20639e-19)
(-0.0620399 -0.0698992 1.88559e-19)
(-0.0658484 -0.0671292 1.06516e-19)
(-0.0652608 -0.0633313 1.87044e-19)
(-0.0596595 -0.0591891 -8.94018e-20)
(-0.0497164 -0.0550218 -2.44031e-19)
(-0.0316514 -0.0505212 -1.29727e-19)
(-0.0138542 -0.0465783 1.42398e-19)
(0.0253427 -0.0399198 1.37678e-19)