/*--------------------------------*- C++ -*----------------------------------*\
  =========                 |
  \\      /  F ield         | OpenFOAM: The Open Source CFD Toolbox
   \\    /   O peration     | Website:  https://openfoam.org
    \\  /    A nd           | Version:  7
     \\/     M anipulation  |
\*---------------------------------------------------------------------------*/
FoamFile
{
    version     2.0;
    format      ascii;
    class       volScalarField;
    location    "25";
    object      p;
}
// * * * * * * * * * * * * * * * * * * * * * * * * * * * * * * * * * * * * * //

dimensions      [0 2 -2 0 0 0 0];

internalField   nonuniform List<scalar> 
8330
(
0.0422368
0.0389319
0.0382019
0.0368938
0.0358388
0.0346755
0.0335345
0.0324252
0.0313863
0.0304792
0.0296568
0.029114
0.0283931
0.0284389
0.0421082
0.0388287
0.0381044
0.0368046
0.035755
0.0345964
0.0334591
0.0323531
0.0313159
0.0304144
0.0295893
0.0290709
0.028327
0.0284859
0.041854
0.038625
0.0379122
0.0366295
0.0355909
0.0344422
0.0333124
0.0322136
0.0311801
0.0302904
0.0294587
0.0289919
0.0281952
0.0285845
0.0414778
0.0383235
0.0376284
0.0363714
0.0353499
0.0342164
0.0330985
0.032011
0.0309833
0.0301127
0.0292674
0.0288855
0.0279932
0.0287409
0.0409845
0.0379279
0.0372568
0.0360347
0.0350369
0.0339247
0.0328234
0.031752
0.0307317
0.0298893
0.029019
0.0287651
0.0277137
0.0289644
0.0403804
0.037443
0.0368028
0.0356252
0.0346581
0.0335739
0.0324947
0.0314448
0.0304338
0.029631
0.0287174
0.0286488
0.027347
0.0292678
0.0396731
0.0368747
0.0362726
0.0351495
0.0342213
0.0331724
0.0321214
0.0310997
0.0300991
0.0293513
0.0283667
0.0285597
0.0268808
0.0296678
0.0388711
0.0362292
0.0356732
0.0346153
0.0337349
0.03273
0.0317142
0.0307282
0.0297387
0.029066
0.0279711
0.0285253
0.0263021
0.0301865
0.0379834
0.0355135
0.0350121
0.0340308
0.0332084
0.0322569
0.0312843
0.0303432
0.0293647
0.0287929
0.0275349
0.0285765
0.0255941
0.030861
0.0370196
0.0347346
0.0342971
0.0334046
0.0326514
0.0317642
0.0308438
0.0299582
0.0289895
0.0285512
0.0270629
0.0287497
0.0247272
0.0317407
0.0359891
0.0338996
0.0335362
0.0327456
0.0320741
0.0312632
0.030405
0.0295872
0.0286266
0.0283608
0.0265575
0.0290856
0.0237145
0.0327788
0.034901
0.0330151
0.032737
0.0320623
0.0314863
0.0307649
0.02998
0.0292435
0.0282889
0.0282469
0.0260291
0.0295503
0.0228963
0.0336626
0.0337638
0.0320876
0.0319067
0.0313627
0.0308972
0.0302798
0.0295804
0.0289397
0.0279851
0.028225
0.0255824
0.0298977
0.0222721
0.0346282
0.0325847
0.0311224
0.0310515
0.0306542
0.0303154
0.0298175
0.0292169
0.0286871
0.027728
0.0282079
0.0253237
0.0303498
0.0216055
0.035757
0.0313699
0.0301241
0.0301771
0.0299431
0.0297483
0.0293863
0.0288986
0.0284933
0.0275931
0.0282233
0.0251227
0.0309928
0.0209287
0.0369897
0.0301238
0.029096
0.0292876
0.0292345
0.0292018
0.0289927
0.0286329
0.0283529
0.0275352
0.0283512
0.0249827
0.0317895
0.0203625
0.0382444
0.0288491
0.0280402
0.0283858
0.0285319
0.02868
0.0286409
0.028426
0.0282828
0.0275502
0.028578
0.024952
0.0326793
0.0200098
0.0393977
0.027546
0.0269572
0.027473
0.0278371
0.0281852
0.028333
0.0282783
0.0282847
0.0276515
0.0288802
0.0250811
0.0335879
0.020019
0.0403
0.0262126
0.0258459
0.0265487
0.02715
0.0277172
0.0280687
0.0281889
0.0283538
0.0278454
0.0292376
0.0254142
0.034428
0.0205621
0.0408401
0.0248448
0.0247036
0.0256108
0.0264688
0.0272733
0.0278448
0.0281544
0.0284831
0.0281317
0.0296346
0.0259881
0.0351233
0.0217834
0.0410318
0.0234355
0.0235252
0.0246552
0.025789
0.0268488
0.0276553
0.028168
0.028664
0.0285044
0.0300648
0.0268204
0.0356431
0.0237295
0.0410602
0.0223044
0.0236759
0.0251043
0.0264363
0.0274913
0.0282203
0.0288871
0.0289525
0.0305367
0.0279023
0.0360309
0.0263056
0.041226
0.0210363
0.0226623
0.0244063
0.0260257
0.0273414
0.0282991
0.0291434
0.0294612
0.0310708
0.0292032
0.0364036
0.0293036
0.0418118
0.0197104
0.0216047
0.0236842
0.0256048
0.0271923
0.0283906
0.0294252
0.0300169
0.0316911
0.0306844
0.0369131
0.032498
0.0429728
0.0183127
0.020494
0.0229256
0.0251596
0.0270293
0.0284802
0.0297265
0.0306138
0.0324174
0.0323169
0.0376922
0.0357478
0.044708
0.0193163
0.0221164
0.0246742
0.026836
0.0285542
0.0300422
0.0312561
0.0332639
0.0340876
0.0388227
0.0390463
0.0468613
0.0180567
0.0212409
0.0241321
0.0265972
0.0286013
0.0303689
0.0319548
0.0342454
0.035993
0.0403416
0.0424884
0.0491191
0.0166993
0.0202827
0.0235163
0.0262988
0.0286139
0.0307055
0.032723
0.0353806
0.0380308
0.0422677
0.0461026
0.0511868
0.0152277
0.0192248
0.0228105
0.0259293
0.0285882
0.0310545
0.0335728
0.0366902
0.0402039
0.0446064
0.0496386
0.0534176
0.0180501
0.0219999
0.0254804
0.0285234
0.0314227
0.0345171
0.0381917
0.0425287
0.0473174
0.0529437
0.0571071
0.016742
0.0210721
0.024947
0.0284205
0.0318214
0.0355712
0.0398962
0.045023
0.0502813
0.0564344
0.0610175
0.0200181
0.0243264
0.028283
0.0322675
0.036753
0.041808
0.047685
0.0534725
0.060034
0.0650181
0.0188317
0.0236166
0.0281189
0.0327828
0.0380804
0.0439224
0.0505158
0.0568379
0.0637619
0.0691098
0.0175091
0.0228171
0.0279434
0.0333922
0.0395685
0.0462315
0.0535075
0.0603507
0.0676101
0.0732573
0.0219311
0.0277799
0.034121
0.0412279
0.0487251
0.0566512
0.0639916
0.0715669
0.0774798
0.0209692
0.0276587
0.0349916
0.0430646
0.0513929
0.0599375
0.0677492
0.075627
0.0817774
0.0276136
0.036023
0.0450816
0.0542264
0.0633589
0.0716181
0.0797857
0.0861592
0.0372299
0.0472795
0.0572186
0.0669103
0.0755966
0.0840423
0.0906303
0.0386238
0.0496586
0.0603655
0.07059
0.0796858
0.0883983
0.0951969
0.0522194
0.0636655
0.0743985
0.083889
0.0928572
0.0998645
0.0671197
0.078339
0.088211
0.0974234
0.104638
0.0824167
0.0926577
0.102102
0.109524
0.0972357
0.1069
0.114527
0.111823
0.119652
0.124903
0.124931
0.101991
0.111857
0.11968
0.086683
0.0972752
0.106934
0.114555
0.0824625
0.0926982
0.102137
0.109553
0.0671714
0.0783861
0.0882527
0.0974589
0.104668
0.052276
0.0637188
0.0744471
0.0839319
0.0928935
0.0998941
0.0386836
0.0497169
0.0604205
0.0706402
0.0797302
0.0884357
0.0952271
0.0372912
0.0473395
0.0572755
0.0669624
0.0756425
0.0840807
0.0906611
0.0276757
0.0360859
0.0451435
0.0542853
0.0634129
0.0716658
0.0798253
0.0861907
0.02103
0.027722
0.0350562
0.0431286
0.0514542
0.0599938
0.0677988
0.0756681
0.0818098
0.0219925
0.0278443
0.0341873
0.041294
0.0487887
0.0567099
0.0640433
0.0716096
0.0775131
0.0175676
0.0228791
0.0280089
0.0334602
0.0396369
0.0462978
0.0535689
0.0604049
0.0676546
0.0732916
0.0188905
0.0236792
0.0281856
0.0328525
0.0381512
0.0439915
0.05058
0.0568948
0.0638083
0.0691453
0.0153411
0.0200772
0.0243896
0.0283508
0.032339
0.0368261
0.04188
0.0477523
0.0535323
0.0600828
0.0650548
0.0167983
0.0211315
0.0250108
0.0284893
0.0318946
0.0356467
0.0399712
0.0450936
0.0503442
0.0564857
0.0610555
0.0181065
0.0220596
0.0255448
0.0285931
0.0314974
0.0345949
0.0382698
0.0426028
0.0473838
0.052998
0.0571464
0.0152824
0.0192812
0.0228705
0.0259942
0.0286589
0.0311307
0.0336528
0.0367713
0.0402815
0.0446765
0.0496964
0.053458
0.0167539
0.0203392
0.0235766
0.0263642
0.0286854
0.030783
0.032805
0.0354645
0.038112
0.0423416
0.0461645
0.0512295
0.0181111
0.0212973
0.0241925
0.026663
0.0286734
0.0304475
0.0320386
0.0343321
0.0360776
0.0404197
0.0425548
0.0491654
0.0168842
0.0193704
0.0221727
0.0247347
0.026902
0.0286269
0.0301218
0.0313413
0.0333529
0.0341753
0.0389048
0.0391171
0.0469117
0.018365
0.0205475
0.0229816
0.0252199
0.0270954
0.0285532
0.0298067
0.0307002
0.0325084
0.0324074
0.0377785
0.0358225
0.0447625
0.019762
0.0216577
0.0237397
0.0256648
0.0272583
0.0284636
0.0295057
0.030104
0.0317838
0.0307771
0.0370031
0.032576
0.0430315
0.0210869
0.0227145
0.0244611
0.0260852
0.027407
0.0283719
0.0292238
0.0295486
0.0311645
0.0292974
0.0364969
0.0293844
0.0418748
0.0223542
0.0237272
0.0251584
0.0264951
0.0275562
0.0282924
0.0289671
0.0290399
0.0306308
0.0279976
0.0361265
0.0263889
0.041293
0.0234851
0.0235738
0.0247053
0.0258421
0.0269066
0.0277193
0.0282393
0.0287432
0.0285911
0.0301588
0.026916
0.0357401
0.0238148
0.0411306
0.0248929
0.0247508
0.0256596
0.0265207
0.0273299
0.0279076
0.0282244
0.0285611
0.0282172
0.0297277
0.0260835
0.0352205
0.0218704
0.0411044
0.0262591
0.0258917
0.0265961
0.0272005
0.0277723
0.02813
0.0282574
0.0284302
0.0279294
0.0293291
0.0255087
0.0345243
0.0206503
0.0409135
0.0275907
0.0270014
0.0275188
0.0278859
0.0282387
0.0283924
0.0283448
0.028359
0.0277333
0.0289695
0.0251739
0.0336822
0.0201073
0.0403728
0.0288918
0.0280826
0.0284298
0.028579
0.0287316
0.0286983
0.0284902
0.0283546
0.0276294
0.0286644
0.0250424
0.0327708
0.0200971
0.0394687
0.0301645
0.0291365
0.0293297
0.0292796
0.0292512
0.0290477
0.0286946
0.0284218
0.0276113
0.0284343
0.02507
0.0318774
0.0204476
0.0383127
0.0314084
0.0301626
0.0302172
0.029986
0.0297954
0.0294388
0.0289573
0.028559
0.0276658
0.0283024
0.0252064
0.0310765
0.0210102
0.0370545
0.0326209
0.0311587
0.0310894
0.0306948
0.03036
0.0298672
0.0292726
0.0287493
0.0277969
0.0282825
0.025403
0.0304287
0.0216834
0.035818
0.0337976
0.0321216
0.0319422
0.0314008
0.030939
0.0303264
0.0296327
0.0289981
0.0280497
0.0282954
0.0256566
0.0299712
0.022345
0.0346852
0.0349324
0.0330468
0.0327701
0.0320978
0.0315252
0.0308083
0.0300287
0.0292979
0.0283489
0.0283122
0.0260977
0.0296182
0.0229636
0.0337126
0.0360179
0.0339287
0.0335667
0.0327784
0.0321101
0.0313033
0.0304499
0.0296373
0.0286819
0.0284209
0.0266205
0.0291487
0.0237735
0.0328259
0.0370458
0.0347612
0.034325
0.0334346
0.0326843
0.0318008
0.0308847
0.0300039
0.02904
0.0286058
0.0271201
0.0288068
0.02478
0.0317833
0.038007
0.0355375
0.0350372
0.0340577
0.033238
0.0322899
0.0313212
0.0303844
0.0294101
0.028842
0.0275861
0.0286274
0.025641
0.0308983
0.0388919
0.0362505
0.0356954
0.0346392
0.0337613
0.0327593
0.031747
0.0307648
0.0297789
0.0291094
0.0280162
0.0285701
0.026343
0.0302187
0.0396912
0.0368933
0.036292
0.0351704
0.0342443
0.033198
0.03215
0.0311315
0.030134
0.0293889
0.0284058
0.0285983
0.0269158
0.029695
0.0403957
0.0374588
0.0368193
0.0356429
0.0346777
0.0335956
0.0325189
0.0314718
0.0304634
0.0296629
0.0287504
0.0286813
0.0273762
0.0292903
0.0409971
0.0379408
0.0372704
0.0360493
0.0350529
0.0339425
0.0328433
0.0317741
0.0307561
0.0299154
0.029046
0.0287915
0.0277374
0.0289824
0.0414876
0.0383336
0.0376389
0.0363828
0.0353624
0.0342303
0.0331141
0.0320283
0.0310022
0.030133
0.0292884
0.028906
0.0280114
0.0287546
0.041861
0.0386322
0.0379198
0.0366376
0.0355998
0.0344521
0.0333235
0.0322259
0.0311937
0.0303049
0.0294736
0.0290064
0.0282082
0.0285942
0.0421124
0.038833
0.0381089
0.0368095
0.0357604
0.0346024
0.0334657
0.0323605
0.031324
0.0304231
0.0295983
0.0290796
0.0283348
0.0284916
0.0422382
0.0389334
0.0382034
0.0368954
0.0358406
0.0346775
0.0335368
0.0324277
0.031389
0.0304821
0.0296598
0.0291169
0.0283957
0.0284408
0.0278543
0.0276335
0.0274201
0.0271952
0.0269586
0.0267098
0.026447
0.0261684
0.0258718
0.0255546
0.0252141
0.024847
0.0244497
0.0240182
0.0235478
0.0230336
0.0224701
0.0218515
0.0211714
0.0204232
0.0196001
0.0186952
0.0177018
0.0166137
0.0154254
0.0141329
0.0127344
0.011231
0.00962789
0.00793591
0.00617309
0.00436667
0.00255533
0.000791435
-0.000856943
-0.00230475
-0.00345013
-0.00417961
-0.00437823
-0.00392931
-0.00276001
-0.00105207
0.0278181
0.0275977
0.0273908
0.0271693
0.0269353
0.0266891
0.0264289
0.026153
0.025859
0.0255445
0.0252067
0.0248423
0.0244477
0.0240187
0.0235508
0.0230389
0.0224775
0.0218606
0.021182
0.020435
0.0196126
0.018708
0.0177142
0.016625
0.0154348
0.0141397
0.0127375
0.0112293
0.00962022
0.00792105
0.00614972
0.00433354
0.00251129
0.000735601
-0.000925018
-0.00238481
-0.00354081
-0.00427796
-0.00447921
-0.00402389
-0.00283184
-0.00110346
0.0277494
0.0275289
0.0273346
0.0271196
0.0268901
0.0266485
0.026393
0.0261217
0.0258323
0.0255225
0.0251894
0.0248296
0.0244394
0.0240147
0.0235508
0.0230426
0.0224846
0.0218705
0.0211942
0.0204487
0.019627
0.0187221
0.017727
0.0166352
0.0154411
0.0141404
0.0127309
0.0112136
0.00959325
0.00788063
0.00609363
0.00425958
0.00241751
0.000620495
-0.00106219
-0.00254353
-0.00371864
-0.00446949
-0.00467513
-0.00420754
-0.00297109
-0.00120485
0.0276529
0.0274307
0.0272554
0.0270499
0.026827
0.0265918
0.0263428
0.0260779
0.025795
0.0254917
0.0251649
0.0248115
0.0244274
0.0240086
0.0235502
0.023047
0.0224934
0.0218831
0.0212096
0.020466
0.0196451
0.0187395
0.0177423
0.0166466
0.0154467
0.0141379
0.0127179
0.0111873
0.00955096
0.00781923
0.00601002
0.00415074
0.00228072
0.000453627
-0.00126017
-0.00277197
-0.00397422
-0.00474477
-0.00495702
-0.00447307
-0.00317187
-0.00135499
0.0275343
0.0273074
0.0271579
0.0269653
0.0267507
0.0265239
0.0262831
0.0260262
0.0257514
0.025456
0.0251372
0.0247916
0.0244151
0.0240034
0.0235518
0.0230548
0.0225065
0.0219008
0.0212308
0.0204894
0.0196693
0.0187629
0.0177629
0.0166623
0.0154548
0.0141359
0.0127026
0.0111554
0.00949888
0.00774318
0.00590615
0.00401528
0.00211025
0.000245483
-0.00150737
-0.00305757
-0.0042943
-0.0050904
-0.00531201
-0.00481071
-0.00343464
-0.00155241
0.0273981
0.0271626
0.0270468
0.0268713
0.0266671
0.0264504
0.0262195
0.0259722
0.0257067
0.0254207
0.025111
0.0247743
0.0244064
0.024003
0.0235591
0.0230691
0.0225271
0.0219266
0.0212606
0.0205218
0.0197026
0.0187952
0.0177919
0.0166855
0.0154694
0.0141386
0.01269
0.0111235
0.0094435
0.00765998
0.00579063
0.00386307
0.00191733
8.68169e-06
-0.00178979
-0.00338505
-0.00466263
-0.00548982
-0.00572404
-0.00520737
-0.00373872
-0.00179485
0.0272453
0.0269975
0.0269258
0.0267727
0.0265815
0.0263771
0.026158
0.0259217
0.0256668
0.025391
0.0250914
0.0247643
0.0244058
0.0240113
0.0235757
0.0230934
0.0225581
0.0219633
0.0213017
0.0205658
0.0197476
0.0188391
0.0178324
0.0167197
0.0154942
0.0141505
0.012685
0.0110974
0.00939166
0.00757756
0.00567268
0.00370471
0.00171411
-0.000243009
-0.00209203
-0.00373749
-0.00506106
-0.00592432
-0.00617446
-0.00564789
-0.00407934
-0.00208065
0.0270697
0.026811
0.0267976
0.0266734
0.0264989
0.0263097
0.0261046
0.0258808
0.0256375
0.0253726
0.0250834
0.0247664
0.0244175
0.0240322
0.0236051
0.0231307
0.0226024
0.0220135
0.0213565
0.0206237
0.0198067
0.0188972
0.017887
0.0167679
0.0155326
0.0141754
0.0126923
0.0110826
0.0093499
0.00750365
0.00556135
0.00355077
0.00151277
-0.000495694
-0.00239842
-0.00409755
-0.00547074
-0.00637418
-0.0066432
-0.00611456
-0.00444188
-0.00240678
0.0268399
0.0265979
0.0266635
0.0265758
0.0264226
0.0262527
0.0260645
0.025855
0.0256242
0.0253706
0.025092
0.0247849
0.0244455
0.0240691
0.0236504
0.0231836
0.0226623
0.0220792
0.0214269
0.0206972
0.0198815
0.0189712
0.0179576
0.0168322
0.0155873
0.0142166
0.0127159
0.0110839
0.00932392
0.0074451
0.00546482
0.00341091
0.0013246
-0.000736304
-0.00269407
-0.00444854
-0.00587328
-0.00681992
-0.00710994
-0.00658857
-0.00481051
-0.00276914
0.0264509
0.0263448
0.0265198
0.0264786
0.0263547
0.0262097
0.026042
0.025849
0.0256316
0.0253897
0.0251214
0.0248238
0.0244932
0.024125
0.0237141
0.0232544
0.0227395
0.0221619
0.021514
0.0207873
0.0199729
0.0190619
0.0180452
0.0169138
0.0156597
0.0142762
0.0127584
0.0111047
0.00931814
0.00740743
0.00538987
0.00329332
0.00115938
-0.00095339
-0.00296575
-0.00477544
-0.00625186
-0.00724344
-0.00755534
-0.00705087
-0.00517052
-0.00317715
0.0261283
0.026073
0.0263675
0.0263905
0.0263023
0.0261855
0.0260414
0.0258668
0.0256639
0.0254337
0.0251754
0.0248866
0.0245632
0.0242024
0.0237982
0.0233446
0.0228352
0.0222624
0.0216183
0.0208942
0.0200811
0.0191695
0.0181499
0.0170131
0.0157505
0.0143549
0.0128212
0.0111471
0.00933554
0.00739455
0.00534153
0.00320431
0.00102483
-0.00113768
-0.00320251
-0.00506564
-0.00659211
-0.00762895
-0.00796209
-0.00748357
-0.00550476
-0.00359433
0.0261698
0.0258177
0.0262185
0.0263285
0.0262759
0.0261857
0.0260664
0.0259119
0.025724
0.0255054
0.0252563
0.0249751
0.0246587
0.0243035
0.0239044
0.0234555
0.0229503
0.0223812
0.02174
0.021018
0.0202057
0.0192933
0.0182711
0.0171294
0.0158592
0.0144528
0.0129046
0.0112117
0.00937766
0.00740872
0.00532299
0.00314815
0.000926424
-0.00128238
-0.00339611
-0.00530943
-0.0068827
-0.00796377
-0.00831543
-0.00787178
-0.00579281
-0.00403778
0.0261643
0.0255907
0.0260982
0.0262958
0.0262775
0.0262132
0.0261198
0.0259865
0.0258144
0.0256073
0.0253669
0.0250922
0.024781
0.0244298
0.0240341
0.0235882
0.0230856
0.0225187
0.0218793
0.0211583
0.0203461
0.0194328
0.018408
0.0172619
0.0159849
0.014569
0.013008
0.011299
0.00944411
0.00745065
0.00533573
0.00312714
0.00086742
-0.00138319
-0.00354108
-0.0055001
-0.00711562
-0.00823867
-0.00860429
-0.00820257
-0.00601885
-0.00448501
0.0262391
0.0254259
0.0260202
0.0263026
0.0263159
0.0262741
0.0262057
0.0260939
0.0259375
0.0257418
0.0255093
0.0252401
0.0249324
0.0245835
0.0241893
0.0237443
0.0232423
0.0226758
0.0220365
0.0213152
0.0205022
0.0195873
0.0185598
0.0174095
0.0161265
0.0147023
0.0131303
0.0114074
0.00953479
0.00752009
0.00537993
0.00314203
0.000849264
-0.00143788
-0.00363434
-0.00563366
-0.00728594
-0.0084452
-0.00882901
-0.00844248
-0.00623347
-0.00464136
0.0264672
0.0253667
0.0260119
0.0263702
0.0264075
0.0263801
0.0263319
0.0262397
0.0260981
0.0259127
0.0256871
0.0254219
0.0251161
0.0247676
0.0243726
0.0239264
0.0234228
0.0228545
0.0222133
0.0214901
0.0206749
0.0197573
0.0187266
0.017572
0.0162834
0.014852
0.0132707
0.0115359
0.00964868
0.00761623
0.00545496
0.00319249
0.000871983
-0.00144601
-0.00367491
-0.00570867
-0.0073916
-0.00858316
-0.00897978
-0.00860897
-0.00639099
-0.0045809
0.0269157
0.0254823
0.0261199
0.0265307
0.026577
0.0265505
0.0265131
0.0264349
0.0263046
0.0261269
0.0259061
0.0256431
0.0253372
0.0249868
0.0245888
0.0241387
0.0236309
0.0230584
0.0224129
0.0216856
0.0208664
0.0199447
0.0189097
0.0177504
0.0164564
0.0150183
0.0134291
0.0116845
0.00978528
0.00773844
0.00556016
0.00327785
0.000934976
-0.0014081
-0.00366315
-0.00572529
-0.00743266
-0.00865201
-0.00905752
-0.00870422
-0.00647799
-0.00450605
0.0276314
0.0258496
0.0264034
0.0268259
0.0268586
0.0268137
0.0267722
0.0266976
0.0265715
0.0263966
0.0261768
0.0259128
0.025604
0.0252489
0.0248449
0.0243881
0.0238732
0.0232934
0.0226409
0.0219068
0.0210813
0.0201536
0.0191128
0.0179477
0.0166478
0.0152034
0.0136069
0.0118541
0.00994524
0.00788703
0.00569552
0.00339781
0.00103773
-0.00132485
-0.00359994
-0.0056846
-0.00741049
-0.00865311
-0.00906519
-0.0087296
-0.0065032
-0.00442963
0.0286142
0.0265273
0.0269224
0.0273027
0.0272931
0.0272071
0.0271413
0.0270547
0.0269212
0.0267405
0.0265153
0.0262453
0.0259293
0.0255656
0.025152
0.0246849
0.0241592
0.0235687
0.0229058
0.0221618
0.0213269
0.0203906
0.0193419
0.0181695
0.0168625
0.0154113
0.0138079
0.0120478
0.010131
0.00806386
0.00586235
0.00355318
0.00118055
-0.00119648
-0.00348601
-0.00558782
-0.00732692
-0.00858886
-0.00900608
-0.00868955
-0.00647179
-0.00433314
0.0298114
0.0275335
0.0277211
0.0280042
0.0279231
0.0277731
0.02766
0.027541
0.0273841
0.0271853
0.0269449
0.026661
0.0263314
0.0259537
0.0255255
0.0250434
0.0245025
0.0238969
0.0232195
0.0224616
0.0216138
0.0206657
0.0196062
0.018424
0.0171083
0.015649
0.0140382
0.012271
0.0103472
0.00827288
0.00606389
0.00374642
0.00136514
-0.00102203
-0.00332116
-0.00543558
-0.00718348
-0.00846182
-0.00888359
-0.00858934
-0.00638817
-0.00421476
0.0311515
0.0288427
0.0288134
0.0289588
0.0287855
0.0285541
0.0283709
0.0281967
0.027997
0.0277641
0.0274953
0.0271867
0.0268343
0.026435
0.0259855
0.0254823
0.0249206
0.0242946
0.0235975
0.0228211
0.0219559
0.0209918
0.0199178
0.0187227
0.0173956
0.0159263
0.0143068
0.0125318
0.0106011
0.00852042
0.00630556
0.00398204
0.00159511
-0.000798894
-0.00310381
-0.00522739
-0.00698078
-0.00827396
-0.00870063
-0.00843391
-0.00625763
-0.00407806
0.032606
0.0304158
0.0301854
0.0301758
0.0299058
0.0295844
0.0293126
0.0290617
0.0287995
0.0285143
0.0282009
0.0278537
0.0274669
0.0270358
0.0265563
0.0260242
0.0254345
0.0247817
0.0240588
0.023258
0.02237
0.021385
0.020292
0.0190799
0.0177378
0.0162556
0.0146251
0.0128408
0.0109025
0.00881522
0.0065951
0.00426672
0.00187604
-0.000522642
-0.0028307
-0.00496129
-0.00671814
-0.00802626
-0.00845928
-0.0082273
-0.00608554
-0.00392658
0.0342246
0.0322328
0.0318163
0.0316558
0.0312986
0.0308862
0.0305135
0.0301699
0.0298276
0.029472
0.0290966
0.0286949
0.0282598
0.0277848
0.0272645
0.026694
0.0260679
0.0253803
0.0246243
0.0237923
0.0228753
0.0218633
0.0207459
0.019512
0.0181506
0.0166517
0.015007
0.0132109
0.011263
0.0091681
0.00694228
0.00460912
0.00221541
-0.000187049
-0.00249689
-0.00463384
-0.00639345
-0.00771846
-0.00816052
-0.00797226
-0.00587656
-0.00376349
0.0361005
0.0343011
0.0337
0.0334045
0.0329725
0.0324686
0.0319893
0.0315443
0.0311088
0.0306667
0.0302127
0.0297408
0.0292424
0.0287098
0.0281366
0.0275169
0.0268445
0.0261132
0.0253161
0.0244452
0.0234918
0.0224464
0.0212983
0.0200367
0.0186509
0.0171306
0.0154678
0.0136564
0.0116962
0.00959138
0.00735834
0.0050193
0.00262213
0.000215448
-0.00209614
-0.00424035
-0.00600346
-0.00734911
-0.00780444
-0.00767026
-0.00563431
-0.00359144
0.0382996
0.0366313
0.035848
0.035436
0.03493
0.0343297
0.0337435
0.033195
0.0326576
0.0321171
0.0315714
0.0310152
0.0304393
0.0298355
0.0291967
0.0285162
0.027787
0.0270024
0.0261549
0.0252369
0.0242394
0.023153
0.0219674
0.0206717
0.0192555
0.0177084
0.0160225
0.0141915
0.0122154
0.0100974
0.00785464
0.00550753
0.00310528
0.000692675
-0.00162189
-0.00377576
-0.00554449
-0.00691618
-0.00739064
-0.00732183
-0.00536135
-0.00341233
0.0408088
0.0392144
0.0382829
0.0377682
0.0371688
0.0364613
0.0357702
0.0351169
0.0344717
0.0338253
0.0331789
0.0325274
0.0318618
0.0311746
0.0304585
0.0297058
0.0289093
0.0280615
0.0271548
0.026181
0.0251315
0.0239967
0.0227665
0.0214302
0.0199773
0.0183977
0.0166834
0.014828
0.0128317
0.0106968
0.00844103
0.00608284
0.00367305
0.00125181
-0.00106801
-0.00323514
-0.00501287
-0.00641725
-0.00691847
-0.00692697
-0.00505958
-0.00322736
0.0434768
0.0419873
0.0410085
0.0404026
0.0396811
0.0388556
0.0380564
0.0372903
0.0365296
0.0357718
0.0350186
0.034264
0.0335005
0.0327212
0.0319187
0.0310853
0.030213
0.0292942
0.0283209
0.0272845
0.0261764
0.0249869
0.0237061
0.0223233
0.0208284
0.019211
0.0174635
0.0155792
0.0135584
0.0114026
0.00913022
0.00675738
0.00433686
0.00190325
-0.000425263
-0.00261069
-0.00440256
-0.0058477
-0.00638571
-0.00648418
-0.00472996
-0.00303694
0.0459261
0.0447074
0.0438702
0.0432425
0.0424346
0.0415247
0.0406312
0.0397527
0.038876
0.0380057
0.0371419
0.0362789
0.035411
0.034532
0.0336346
0.0327112
0.0317539
0.0307546
0.0297053
0.0285971
0.0274214
0.0261685
0.0248285
0.0233909
0.0218459
0.0201829
0.0183949
0.0164744
0.0144225
0.0122394
0.00994437
0.00755078
0.00511385
0.00266155
0.00031831
-0.00189291
-0.00370659
-0.00520215
-0.0057892
-0.00599005
-0.00437068
-0.00284072
0.0482495
0.0473356
0.0467736
0.0462472
0.045475
0.044576
0.0436389
0.0426747
0.0416937
0.0407078
0.0397207
0.0387319
0.0377393
0.0367382
0.0357227
0.0346858
0.03362
0.0325174
0.0313697
0.0301682
0.028904
0.0275675
0.0261491
0.0246382
0.0230254
0.0213002
0.0194561
0.0174852
0.0153894
0.0131674
0.0108403
0.0084177
0.00595824
0.00348222
0.00112122
-0.00111845
-0.00295565
-0.00450389
-0.00514446
-0.00545354
-0.00398033
-0.00264131
0.0528051
0.0509239
0.0497765
0.0488235
0.0478356
0.0468162
0.0457848
0.0447428
0.0436922
0.0426361
0.0415763
0.0405133
0.0394454
0.0383687
0.0372778
0.0361665
0.0350277
0.0338539
0.032637
0.0313686
0.03004
0.0286418
0.0271647
0.0255986
0.0239346
0.0221623
0.0202762
0.0182682
0.0161415
0.0138941
0.0115484
0.00911176
0.00664546
0.00416342
0.00180257
-0.000445431
-0.00228798
-0.003869
-0.00454797
-0.00495106
-0.00360621
-0.00246507
0.0560272
0.053987
0.0526744
0.0516211
0.0505388
0.0494095
0.0482716
0.0471356
0.0459964
0.0448511
0.0437005
0.0425453
0.0413842
0.0402137
0.0390292
0.0378251
0.036595
0.0353318
0.0340281
0.0326757
0.0312665
0.0297913
0.0282414
0.026607
0.02488
0.0230504
0.0211136
0.0190616
0.0168988
0.0146224
0.0122567
0.00980609
0.00733458
0.00484928
0.00249157
0.00023927
-0.00160783
-0.00321699
-0.0039411
-0.00442984
-0.00323409
-0.00228284
0.0590037
0.0568018
0.0555524
0.0545135
0.0533647
0.0521347
0.0508976
0.0496703
0.0484419
0.0472053
0.0459611
0.0447104
0.0434523
0.0421839
0.0409011
0.039599
0.0382719
0.0369134
0.0355166
0.0340739
0.0325776
0.0310191
0.0293905
0.0276822
0.0258872
0.0239959
0.0220047
0.0199059
0.0177053
0.0153992
0.0130139
0.0105508
0.00807634
0.00559086
0.00323915
0.00098595
-0.000865382
-0.002501
-0.0032783
-0.00385527
-0.0028345
-0.00207686
0.0620336
0.0597442
0.0585486
0.05751
0.0562891
0.0549613
0.0536292
0.0523132
0.0509974
0.0496715
0.0483353
0.0469908
0.0456374
0.0442725
0.0428927
0.0414935
0.04007
0.0386163
0.0371262
0.0355927
0.0340086
0.0323659
0.0306572
0.0288737
0.0270091
0.0250543
0.023007
0.0208594
0.0186189
0.0162808
0.0138733
0.0113947
0.00891386
0.00642416
0.00407329
0.00181347
-5.03409e-05
-0.0017203
-0.00256424
-0.00323935
-0.00241413
-0.00185309
0.0652833
0.0628624
0.0616459
0.0605844
0.0592985
0.0578827
0.0564609
0.0550588
0.0536577
0.0522445
0.0508186
0.0493824
0.0479357
0.0464765
0.0450015
0.0435069
0.0419883
0.0404405
0.0388579
0.0372339
0.0355621
0.0338349
0.0320458
0.0301863
0.0282511
0.0262317
0.0241267
0.0219285
0.0196459
0.0172732
0.0148403
0.0123424
0.00985059
0.00735134
0.00499455
0.00272091
0.000834582
-0.000878695
-0.00180385
-0.00258649
-0.00197529
-0.00161407
0.0686975
0.0661145
0.0648288
0.0637274
0.0623824
0.060887
0.0593794
0.0578928
0.0564079
0.0549095
0.0533961
0.0518703
0.0503326
0.0487811
0.047213
0.0456248
0.0440127
0.0423721
0.0406979
0.0389841
0.037225
0.0354135
0.0335438
0.031608
0.0296016
0.0275165
0.0253528
0.0231023
0.0207758
0.018366
0.0159049
0.0133843
0.0108771
0.00836353
0.00599428
0.00370039
0.00178177
1.73863e-05
-0.00100291
-0.00190064
-0.00152008
-0.00136225
0.0721918
0.0694746
0.0680978
0.0669386
0.0655333
0.0639621
0.062371
0.0608008
0.0592331
0.057651
0.056052
0.0544387
0.0528121
0.0511706
0.0495114
0.0478318
0.0461281
0.0443964
0.0426321
0.0408298
0.0389842
0.0370891
0.0351391
0.033127
0.0310494
0.0288982
0.0266747
0.0243709
0.0219987
0.0195498
0.0170576
0.0145111
0.0119843
0.00945178
0.00706347
0.00474327
0.00278269
0.000960131
-0.000168428
-0.00118775
-0.00105189
-0.00110133
0.0757471
0.0729257
0.0714458
0.0702129
0.0687425
0.0670975
0.0654247
0.0637715
0.0621217
0.0604572
0.0587742
0.0570752
0.0553616
0.0536319
0.0518839
0.0501149
0.0483217
0.0465007
0.044648
0.0427586
0.040828
0.0388502
0.0368208
0.0347329
0.0325841
0.0303666
0.0280829
0.0257248
0.0233053
0.0208155
0.0182894
0.0157138
0.0131628
0.0106067
0.00819247
0.00584003
0.00382784
0.00194043
0.000691524
-0.000455293
-0.00057496
-0.000835799
0.0793479
0.0764431
0.0748569
0.0735405
0.0720011
0.0702834
0.0685309
0.0667957
0.0650646
0.0633186
0.061553
0.0597699
0.0579709
0.056155
0.05432
0.0524634
0.0505825
0.0486742
0.0467348
0.0447599
0.0427455
0.0406861
0.0385781
0.0364152
0.0341954
0.0319117
0.0295672
0.0271539
0.0246857
0.0221528
0.0195899
0.016982
0.014402
0.0118177
0.00937061
0.00698008
0.0049069
0.00294829
0.00156834
0.000288599
-9.38528e-05
-0.000570421
0.0829716
0.0800039
0.0783151
0.076911
0.0753002
0.0735108
0.0716807
0.0698651
0.0680535
0.0662272
0.0643803
0.0625146
0.0606318
0.0587312
0.0568108
0.0548684
0.0529016
0.0509075
0.0488829
0.0468239
0.044727
0.0425872
0.0404014
0.0381639
0.0358734
0.0335234
0.0311175
0.0286481
0.0261294
0.0235515
0.0209487
0.0183051
0.0156911
0.013074
0.0105869
0.0081525
0.00600944
0.00397354
0.00245355
0.00103575
0.000386895
-0.000309816
0.0866054
0.0835917
0.0818065
0.0803141
0.078631
0.0767714
0.0748659
0.0729716
0.071081
0.0691756
0.0672489
0.0653021
0.063337
0.0613533
0.0593492
0.0573225
0.0552713
0.0531928
0.0510845
0.0489426
0.0467642
0.0445449
0.0422821
0.0399704
0.0376093
0.0351926
0.0327246
0.0301979
0.0276269
0.0250017
0.0223556
0.0196728
0.0170198
0.0143649
0.011831
0.00934686
0.00712568
0.00500655
0.00333932
0.00177853
0.000863029
-5.80929e-05
0.0902412
0.0871936
0.0853187
0.0837395
0.0819847
0.0800566
0.0780783
0.0761075
0.0741395
0.0721567
0.0701518
0.0681256
0.06608
0.0640147
0.0619285
0.0598192
0.057685
0.0555237
0.0533328
0.0511092
0.0488504
0.0465523
0.0442128
0.0418272
0.0393954
0.0369116
0.0343805
0.0317952
0.0291697
0.0264948
0.0238018
0.021076
0.0183787
0.0156812
0.0130935
0.0105538
0.00824706
0.00603876
0.00421889
0.00251026
0.00133083
0.000181481
0.0938696
0.0907982
0.0888404
0.0871771
0.0853521
0.0833578
0.0813094
0.0792648
0.0772218
0.0751635
0.0730823
0.0709786
0.0688543
0.0667094
0.0645427
0.0623524
0.0601368
0.057894
0.0556219
0.0533177
0.0509793
0.0486031
0.0461874
0.043728
0.0412251
0.0386737
0.0360783
0.0334328
0.0307505
0.0280231
0.0252796
0.0225069
0.0197601
0.0170146
0.0143667
0.0117654
0.00936645
0.00706307
0.0050868
0.00322564
0.00178731
0.000406686
0.0974814
0.0943954
0.0923613
0.090617
0.0887239
0.086666
0.0845507
0.0824354
0.0803199
0.0781885
0.0760333
0.0738544
0.0716535
0.0694309
0.0671857
0.0649161
0.0626209
0.0602981
0.0579461
0.0555625
0.0531454
0.0506918
0.0482003
0.0456671
0.0430928
0.040473
0.037812
0.0351047
0.0323631
0.0295805
0.0267826
0.0239588
0.0211572
0.0183585
0.0156442
0.0129753
0.0104783
0.00807395
0.00593893
0.00392082
0.00223028
0.000616418
0.101067
0.0979755
0.0958712
0.094049
0.0920902
0.0899718
0.0877932
0.0856107
0.0834258
0.081224
0.0789974
0.0767457
0.0744707
0.0721728
0.0698512
0.0675045
0.0651313
0.0627303
0.0602999
0.0578382
0.0553435
0.0528131
0.0502462
0.0476394
0.0449933
0.0423043
0.0395765
0.0368055
0.0340023
0.0311614
0.0283054
0.0254263
0.022565
0.0197076
0.0169211
0.0141785
0.0115784
0.00906739
0.00677245
0.00459338
0.00265835
0.000810593
0.104615
0.101528
0.0993593
0.0974626
0.095441
0.0932655
0.0910276
0.0887816
0.0865307
0.0842617
0.0819667
0.0796452
0.0772989
0.0749282
0.0725326
0.0701109
0.067662
0.0651847
0.0626776
0.0601391
0.0575679
0.0549618
0.0523199
0.0496396
0.0469215
0.0441627
0.0413668
0.0385305
0.0356632
0.0327611
0.0298433
0.0269047
0.0239788
0.0210575
0.0181935
0.0153712
0.0126639
0.0100407
0.00758556
0.00524218
0.00307081
0.00098995
0.108114
0.10504
0.102814
0.100847
0.0987658
0.0965371
0.0942441
0.0919388
0.0896257
0.087293
0.084933
0.0825449
0.0801302
0.0776897
0.0752229
0.0727288