/*--------------------------------*- C++ -*----------------------------------*\
  =========                 |
  \\      /  F ield         | OpenFOAM: The Open Source CFD Toolbox
   \\    /   O peration     | Website:  https://openfoam.org
    \\  /    A nd           | Version:  7
     \\/     M anipulation  |
\*---------------------------------------------------------------------------*/
FoamFile
{
    version     2.0;
    format      ascii;
    class       surfaceScalarField;
    location    "25";
    object      phi;
}
// * * * * * * * * * * * * * * * * * * * * * * * * * * * * * * * * * * * * * //

dimensions      [0 3 -1 0 0 0 0];

internalField   nonuniform List<scalar> 
16429
(
-1.3075e-05
1.31308e-05
-5.57958e-08
-4.21176e-05
2.91167e-05
-7.41568e-08
-8.22199e-05
4.01467e-05
-4.44408e-08
-0.000129931
4.77036e-05
7.15658e-09
-0.000183257
5.32576e-05
6.88642e-08
-0.000241089
5.7692e-05
1.39558e-07
-0.000302911
6.15979e-05
2.23985e-07
-0.000368494
6.52548e-05
3.28326e-07
-0.000437759
6.88073e-05
4.57944e-07
-0.000510521
7.21457e-05
6.16487e-07
-0.00058704
7.57136e-05
8.05555e-07
-0.000666663
7.85995e-05
1.02366e-06
-0.000752407
8.44799e-05
1.26417e-06
8.72914e-05
1.52042e-06
-0.000841219
-1.29547e-05
2.60855e-05
-4.1756e-05
5.79179e-05
-8.15239e-05
7.99147e-05
-0.000128812
9.49921e-05
-0.000181616
0.000106061
-0.000238801
0.000114877
-0.000299826
0.000122623
-0.000364429
0.000129858
-0.000432496
0.000136875
-0.000503779
0.000143428
-0.000578511
0.000150445
-0.000655757
0.000155846
-0.000738747
0.00016747
0.000171943
-0.000823398
-1.27166e-05
3.88021e-05
-4.10392e-05
8.62406e-05
-8.01423e-05
0.000119018
-0.00012659
0.00014144
-0.00017835
0.000157821
-0.000234245
0.000170773
-0.000293678
0.000182056
-0.000356322
0.000192501
-0.000421995
0.000202549
-0.000490321
0.000211754
-0.000561492
0.000221617
-0.000634
0.000228354
-0.00071155
0.00024502
0.000248348
-0.000787955
-1.23662e-05
5.11683e-05
-3.99814e-05
0.000113856
-7.80983e-05
0.000157135
-0.000123295
0.000186636
-0.0001735
0.000208026
-0.000227471
0.000224743
-0.000284526
0.000239111
-0.00034424
0.000252215
-0.000406332
0.000264641
-0.000470231
0.000275653
-0.000536103
0.000287488
-0.000601549
0.0002938
-0.000671115
0.000314586
0.000312578
-0.000735346
-1.19116e-05
6.30799e-05
-3.86029e-05
0.000140547
-7.54259e-05
0.000193958
-0.000118976
0.000230186
-0.000167127
0.000256177
-0.000218551
0.000276167
-0.000272455
0.000293015
-0.000328279
0.000308039
-0.000385615
0.000321977
-0.00044363
0.000333667
-0.000502504
0.000346362
-0.000558603
0.000349899
-0.000617806
0.000373789
0.000360927
-0.000666155
-1.13631e-05
7.4443e-05
-3.69305e-05
0.000166115
-7.21695e-05
0.000229197
-0.000113693
0.000271709
-0.00015931
0.000301795
-0.000207582
0.000324439
-0.000257576
0.000343009
-0.000308565
0.000359028
-0.000359981
0.000373394
-0.000410656
0.000384342
-0.000460864
0.00039657
-0.000505358
0.000394394
-0.000551963
0.000420394
0.000389952
-0.000580987
-1.07332e-05
8.51762e-05
-3.49965e-05
0.000190378
-6.83829e-05
0.000262583
-0.000107522
0.000310848
-0.000150144
0.000344417
-0.000194678
0.000368973
-0.000240023
0.000388354
-0.000285244
0.00040425
-0.000329586
0.000417735
-0.000371461
0.000426218
-0.000411338
0.000436447
-0.000441973
0.000425028
-0.000473774
0.000452195
0.000396508
-0.000480331
-1.00365e-05
9.52127e-05
-3.28381e-05
0.000213179
-6.41281e-05
0.000293873
-0.000100549
0.00034727
-0.000139739
0.000383606
-0.000179971
0.000409205
-0.000219946
0.000428329
-0.000258483
0.000442787
-0.000294599
0.00045385
-0.000326197
0.000457817
-0.00035403
0.00046428
-0.000368544
0.000439542
-0.000383133
0.000466784
0.000377789
-0.000364413
-9.28858e-06
0.000104501
-3.04962e-05
0.000234387
-5.9474e-05
0.000322851
-9.28711e-05
0.000380667
-0.000128216
0.000418951
-0.000163608
0.000444597
-0.000197512
0.000462233
-0.000228457
0.000473732
-0.00025519
0.000480582
-0.000275007
0.000477635
-0.000288955
0.000478227
-0.000285106
0.000435694
-0.000279485
0.000461162
0.000331417
-0.000233113
-8.50654e-06
0.000113008
-2.80148e-05
0.000253895
-5.44941e-05
0.00034933
-8.45894e-05
0.000410762
-0.000115705
0.000450067
-0.000145739
0.00047463
-0.000172889
0.000489383
-0.000195341
0.000496184
-0.000211513
0.000496754
-0.000218019
0.000484141
-0.000216
0.000476207
-0.000191688
0.000411383
-0.000161575
0.000431049
0.000256188
-8.63458e-05
-7.70785e-06
0.000120716
-2.54396e-05
0.000271627
-4.92651e-05
0.000373156
-7.58107e-05
0.000437308
-0.000102339
0.000476595
-0.000126519
0.00049881
-0.00014624
0.000509104
-0.000159295
0.000509239
-0.000163686
0.000501145
-0.000155331
0.000475786
-0.000134824
0.000455701
-8.86943e-05
0.000365253
-2.56999e-05
0.000368055
0.000151613
7.8875e-05
-6.91013e-06
0.000127626
-2.28162e-05
0.000287533
-4.38636e-05
0.000394203
-6.66406e-05
0.000460085
-8.82469e-05
0.000498202
-0.000106093
0.000516656
-0.000117713
0.000520725
-0.000120444
0.00051197
-0.000111764
0.000492466
-8.70569e-05
0.000451078
-4.4282e-05
0.000412926
2.39597e-05
0.000297011
0.000117537
0.000274478
2.68693e-06
0.000266463
-6.13056e-06
0.000133756
-2.01894e-05
0.000301592
-3.83642e-05
0.000412378
-5.71803e-05
0.000478901
-7.35493e-05
0.000514571
-8.4587e-05
0.000527694
-8.74174e-05
0.000523555
-7.88455e-05
0.000503398
-5.56235e-05
0.000469244
-1.39123e-05
0.000409367
5.38617e-05
0.000345152
0.000154851
0.000196021
0.000278548
0.000150781
-0.000195121
0.000476356
-5.38533e-06
0.000139142
-1.76008e-05
0.000313807
-3.28356e-05
0.000427613
-4.75205e-05
0.000493586
-5.83485e-05
0.000525399
-6.2097e-05
0.000531442
-5.54147e-05
0.000516873
-3.45068e-05
0.00048249
5.4873e-06
0.00042925
6.76975e-05
0.000347157
0.000160257
0.000252592
0.000296883
5.93958e-05
0.000459536
-1.18718e-05
-0.000447695
0.000712109
-4.689e-06
0.000143831
-1.50873e-05
0.000324206
-2.73373e-05
0.000439863
-3.77364e-05
0.000503985
-4.27195e-05
0.000530382
-3.86712e-05
0.000527394
-2.16787e-05
0.00049988
1.26415e-05
0.00044817
6.99556e-05
0.000371935
0.000155852
0.000261261
0.000278176
0.000130268
0.000452936
-0.000115365
0.000661911
-0.000220846
-0.000761904
0.000976121
-4.0539e-06
0.000147885
-1.26795e-05
0.000332831
-2.19163e-05
0.0004491
-2.78804e-05
0.000509949
-2.66993e-05
0.000529201
-1.42959e-05
0.000514991
1.39149e-05
0.000471669
6.32408e-05
0.000398844
0.000140281
0.000294895
0.000251696
0.000149846
0.000408685
-2.67205e-05
0.000624834
-0.000331514
0.00088739
-0.000483403
-0.00114394
0.00126942
-3.4896e-06
0.000151374
-1.03993e-05
0.000339741
-1.66026e-05
0.000455303
-1.79759e-05
0.000511322
-1.02756e-05
0.0005215
1.11259e-05
0.000493589
5.15914e-05
0.000431204
0.000117465
0.00033297
0.000216849
0.000195511
0.000356735
9.9599e-06
0.000553457
-0.000223442
0.000814603
-0.00059266
0.00113735
-0.000806154
-0.00159727
0.00159069
-3.00225e-06
0.000154376
-8.25864e-06
0.000344997
-1.14058e-05
0.00045845
-8.00974e-06
0.000507926
6.62448e-06
0.000506866
3.77911e-05
0.000462422
9.17842e-05
0.000377211
0.000176123
0.000248631
0.000300773
7.0861e-05
0.000472747
-0.000162014
0.000714184
-0.000464879
0.00102422
-0.000902693
0.00141232
-0.00119426
-0.00212024
0.00193529
-2.59412e-06
0.000156971
-6.25716e-06
0.00034866
-6.31141e-06
0.000458504
2.0751e-06
0.00049954
2.41454e-05
0.000484796
6.60037e-05
0.000420564
0.000135061
0.000308154
0.00024018
0.000143511
0.000393409
-8.23674e-05
0.000601799
-0.000370404
0.000892189
-0.000755269
0.00125486
-0.00126536
0.0017109
-0.0016503
-0.00270401
0.00229467
-2.26316e-06
0.000159234
-4.38096e-06
0.000350778
-1.27714e-06
0.0004554
1.23789e-05
0.000485884
4.25127e-05
0.000454662
9.61985e-05
0.000366878
0.000182172
0.00022218
0.000310817
1.48671e-05
0.000496224
-0.000267775
0.000745924
-0.000620104
0.00108805
-0.0010974
0.00150586
-0.00168317
0.00202843
-0.00217287
-0.00333212
0.00265654
-2.00264e-06
-2.60053e-06
0.000351376
3.76975e-06
0.00044903
2.30655e-05
0.000466588
6.20395e-05
0.000415688
0.000128939
0.000299979
0.000234036
0.000117084
0.000389373
-0.00014047
0.000610653
-0.000489056
0.000906535
-0.000915986
0.00130114
-0.001492
0.00177373
-0.00215576
0.0023558
-0.00275494
-0.00398223
0.00300591
-8.63562e-07
0.000350439
8.93349e-06
0.000439233
3.43479e-05
0.000441173
8.31281e-05
0.000366908
0.000164912
0.000218194
0.000291695
-9.69927e-06
0.000477229
-0.000326004
0.000737896
-0.000749723
0.00108372
-0.00126181
0.00152901
-0.00193729
0.00205161
-0.00267836
0.0026794
-0.00338273
-0.00462981
0.00332698
8.58741e-07
0.000347936
1.4349e-05
0.000425743
4.64968e-05
0.000409026
0.000106265
0.000307139
0.000204906
0.000119553
0.000356255
-0.000161048
0.000575613
-0.000545361
0.000878623
-0.00105273
0.0012757
-0.00165889
0.00176681
-0.00242841
0.00232953
-0.00324108
0.00298284
-0.00403605
-0.00525243
0.00360547
2.6429e-06
0.000343783
2.01833e-05
0.000408202
5.98354e-05
0.000369374
0.00013201
0.000234964
0.000249776
1.78813e-06
0.000428777
-0.00034005
0.000685332
-0.000801916
0.00103254
-0.00139994
0.00147852
-0.00210487
0.00200704
-0.00295693
0.00259548
-0.00382952
0.0032501
-0.00469067
-0.00583307
0.00383073
4.60236e-06
2.66318e-05
0.000386173
7.47305e-05
0.000321275
0.000160974
0.000148721
0.000300381
-0.000137619
0.000510137
-0.000549806
0.000806493
-0.00109827
0.00119788
-0.00179132
0.00168624
-0.00259323
0.00224023
-0.00351092
0.00283717
-0.00442646
0.00346885
-0.00532235
-0.00636137
0.00399716
3.39107e-05
0.000359087
9.15811e-05
0.000263604
0.000193786
4.65158e-05
0.000357509
-0.000301342
0.000600847
-0.000793144
0.000938216
-0.00143564
0.00137104
-0.00222415
0.00189132
-0.00311351
0.00245631
-0.0040759
0.00304396
-0.00501412
0.00363259
-0.00591098
-0.00683324
0.00410445
4.22507e-05
0.000326251
0.000110801
0.000195054
0.000231055
-7.37383e-05
0.000421768
-0.000492055
0.000700841
-0.00107222
0.00107843
-0.00181322
0.00154667
-0.0026924
0.00208551
-0.00365235
0.00264631
-0.0046367
0.00320845
-0.00557626
0.00374065
-0.00644317
-0.00725093
0.00415834
5.18893e-05
0.000286842
0.000132797
0.000114146
0.000273314
-0.000214255
0.000493467
-0.000712208
0.000809269
-0.00138802
0.00122377
-0.00222772
0.00171818
-0.00318681
0.00226095
-0.00419512
0.00280369
-0.00517944
0.00332736
-0.00609992
0.00379685
-0.00691266
-0.00763129
0.0041772
6.30597e-05
0.000157949
1.92567e-05
0.000320964
-0.00037727
0.000572482
-0.000963726
0.000924343
-0.00173988
0.00136975
-0.00267313
0.00187868
-0.00369574
0.00241138
-0.00472782
0.00292482
-0.00569288
0.0034017
-0.00657681
0.00381424
-0.0073252
-0.00802234
0.0042053
0.00018658
-9.13412e-05
0.000374203
-0.000564892
0.000658128
-0.00124765
0.00104331
-0.00212507
0.00151118
-0.00314099
0.00202201
-0.00420657
0.00253277
-0.00523858
0.00300891
-0.00616902
0.00343595
-0.00700385
0.00381015
-0.00769939
-0.00837016
0.00415796
0.000218929
0.000432951
-0.000778914
0.00074907
-0.00156377
0.00116263
-0.00253863
0.0016428
-0.00362116
0.00214351
-0.00470728
0.00262351
-0.00571857
0.00305786
-0.00660337
0.00343913
-0.00738513
0.0037743
-0.00803456
-0.0086773
0.00408145
0.000496781
-0.00102057
0.000843313
-0.0019103
0.00127828
-0.0029736
0.00176001
-0.00410289
0.00224041
-0.00518769
0.00268403
-0.00616219
0.00307592
-0.00699526
0.0034155
-0.00772471
0.00371638
-0.00833544
-0.00895524
0.00399431
0.00056486
-0.00129028
0.000938293
-0.00228374
0.00138624
-0.00342155
0.00185932
-0.00457596
0.00231181
-0.00564018
0.00271649
-0.00656687
0.00306759
-0.00734636
0.00337045
-0.00802757
0.00364223
-0.00860722
-0.00920881
0.00389581
0.000635926
0.00103109
-0.0026789
0.00148298
-0.00387344
0.00193867
-0.00503165
0.00235834
-0.00605985
0.00272394
-0.00693248
0.00303747
-0.00765989
0.00330864
-0.00829874
0.00355585
-0.00885443
-0.00944262
0.00378966
0.00111874
-0.00308932
0.00156578
-0.00432048
0.00199734
-0.0054632
0.00238176
-0.00644427
0.0027099
-0.00726061
0.00298978
-0.00793977
0.00323393
-0.00854289
0.00346053
-0.00908102
-0.00965991
0.00367782
0.00119851
0.0016329
-0.00475487
0.00203575
-0.00586605
0.00238449
-0.00679301
0.00267786
-0.00755398
0.00292821
-0.00819012
0.00314945
-0.00876413
0.00335857
-0.00929015
-0.00986298
0.00356164
0.0016836
0.00205512
-0.00623756
0.00236921
-0.00710711
0.00263108
-0.00781585
0.00285582
-0.00841486
0.0030576
-0.00896591
0.00325168
-0.00948423
-0.0100535
0.00344216
0.0020572
-0.0065768
0.00233865
-0.00738856
0.00257246
-0.00804966
0.00277512
-0.00861752
0.00296023
-0.00915102
0.00314107
-0.00966507
-0.0102324
0.00332004
0.002044
0.00229537
-0.00763994
0.00250446
-0.00825875
0.00268807
-0.00880113
0.00285869
-0.00932164
0.00302758
-0.00983397
-0.0104006
0.00319578
0.00224167
0.0024291
-0.00844618
0.00259619
-0.00896822
0.00275398
-0.00947943
0.00291184
-0.00999183
-0.0105585
0.00306971
0.00234806
0.00250065
-0.00912082
0.00264685
-0.00962563
0.00279428
-0.0101393
-0.0107063
0.00294212
0.00240233
0.00253782
-0.00976112
0.00267522
-0.0102767
-0.0108443
0.00281319
0.00242728
0.00255492
-0.0104043
-0.0109725
0.00268312
0.00243356
-0.011091
0.00255203
0.00242008
0.011091
0.00242028
0.00231574
0.0098865
0.00243378
0.0104043
0.0109725
0.00255225
0.00230206
0.00926044
0.00242749
0.00976107
0.00255515
0.0102767
0.0108443
0.00268335
0.00240252
0.00912073
0.00253804
0.00962556
0.00267547
0.0101392
0.0107063
0.00281344
0.00234825
0.00844612
0.00250085
0.00896812
0.00264708
0.00947934
0.00279453
0.00999179
0.0105585
0.00294238
0.00224186
0.00763992
0.0024293
0.00825868
0.0025964
0.00880102
0.00275422
0.00932152
0.00291211
0.0098339
0.0104006
0.00306999
0.00204417
0.00657678
0.00229556
0.00738853
0.00250466
0.00804958
0.00268829
0.00861739
0.00285893
0.00915088
0.00302786
0.00966497
0.0102324
0.00319607
0.00205736
0.0062375
0.00233884
0.00710704
0.00257267
0.00781575
0.00277535
0.00841472
0.00296048
0.00896575
0.00314135
0.0094841
0.0100534
0.00332035
0.0016837
0.00475472
0.00205527
0.00586594
0.0023694
0.00679291
0.0026313
0.00755385
0.00285606
0.00818995
0.00305786
0.00876394
0.00325198
0.00928998
0.00986288
0.00344249
0.00119854
0.00308909
0.00163298
0.00432028
0.00203588
0.00546305
0.00238467
0.00644412
0.00267807
0.00726045
0.00292845
0.00793958
0.00314972
0.00854267
0.00335888
0.00908082
0.00965977
0.00356199
0.00111875
0.00267864
0.00156584
0.00387319
0.00199745
0.00503143
0.00238193
0.00605965
0.00271011
0.00693227
0.00299002
0.00765966
0.00323421
0.00829849
0.00346084
0.00885419
0.00944244
0.00367818
0.000635884
0.00129003
0.00103108
0.00228345
0.00148301
0.00342126
0.00193875
0.00457569
0.00235848
0.00563992
0.00272414
0.00656661
0.00303771
0.00734609
0.00330892
0.00802727
0.00355618
0.00860693
0.00920858
0.00379004
0.000564805
0.00102033
0.000938252
0.00191001
0.00138624
0.00297327
0.00185937
0.00410256
0.00231192
0.00518736
0.00271667
0.00616187
0.00306783
0.00699493
0.00337073
0.00772437
0.00364257
0.0083351
0.00895495
0.0038962
0.000255067
0.000219258
0.000496713
0.00077868
0.000843251
0.00156347
0.00127824
0.00253828
0.00176002
0.00362078
0.0022405
0.00470689
0.00268419
0.00571818
0.00307614
0.00660297
0.00341578
0.00738472
0.00371672
0.00803416
0.00867696
0.00399471
0.000218867
9.12003e-05
0.000432873
0.000564674
0.000748989
0.00124735
0.00116257
0.0021247
0.00164278
0.00314057
0.00214355
0.00420612
0.00262363
0.0052381
0.00305806
0.00616854
0.00343941
0.00700337
0.00377465
0.00769893
0.00836975
0.00408186
0.000186513
-1.93758e-05
0.000374116
0.00037707
0.00065803
0.000963438
0.00104322
0.0017395
0.00151112
0.00267267
0.00202201
0.00369523
0.00253285
0.00472726
0.00300908
0.00569231
0.00343621
0.00657624
0.00381049
0.00732464
0.00802185
0.00415839
6.30123e-05
-0.000286875
0.000157879
-0.000114242
0.000320871
0.000214078
0.000572372
0.000711937
0.000924229
0.00138765
0.00136965
0.00222725
0.00187863
0.00318625
0.0024114
0.0041945
0.00292494
0.00517877
0.00340193
0.00609925
0.00381458
0.00691199
0.0076307
0.00420573
5.18405e-05
-0.000326261
0.000132724
-0.000195126
0.000273217
7.35859e-05
0.000493348
0.000491805
0.000809136
0.00107186
0.00122364
0.00181275
0.00171808
0.0026918
0.00226092
0.00365166
0.00280376
0.00463594
0.00332754
0.00557547
0.00379716
0.00644237
0.00725025
0.00417761
4.22014e-05
-0.000359076
0.000110727
-0.000263651
0.000230955
-4.66423e-05
0.000421643
0.000301118
0.000700696
0.000792806
0.00107827
0.00143517
0.00154653
0.00222354
0.00208542
0.00311277
0.00264631
0.00407505
0.00320857
0.00501322
0.00374092
0.00591002
0.00683245
0.00415872
6.79768e-06
-0.000337749
3.38616e-05
-0.00038614
9.15078e-05
-0.000321298
0.000193687
-0.000148821
0.000357382
0.000137423
0.000600694
0.000549493
0.000938045
0.00109782
0.00137087
0.00179072
0.00189118
0.00259245
0.00245624
0.00351
0.003044
0.00442546
0.0036328
0.00532122
0.00636045
0.0041048
4.57569e-06
-0.000343708
2.6584e-05
-0.000408148
7.46593e-05
-0.000369373
0.000160877
-0.000235039
0.000300256
-1.95664e-06
0.000509983
0.000339766
0.000806312
0.000801491
0.00119768
0.00139935
0.00168605
0.00210408
0.00224009
0.00295595
0.00283712
0.00382843
0.00346897
0.00468937
0.00583198
0.00399743
2.6172e-06
-0.000347844
2.01376e-05
-0.000425668
5.97678e-05
-0.000409003
0.000131919
-0.00030719
0.000249657
-0.000119695
0.000428628
0.000160795
0.000685151
0.000544967
0.00103233
0.00105217
0.0014783
0.00165811
0.00200685
0.0024274
0.00259535
0.00323993
0.00325012
0.00403461
0.00525118
0.00383092
8.34818e-07
-0.000350332
1.43063e-05
-0.00043914
4.64344e-05
-0.000441131
0.000106181
-0.000366936
0.000204797
-0.00021831
0.000356116
9.47573e-06
0.000575439
0.000325644
0.000878417
0.00074919
0.00127546
0.00126107
0.00176658
0.00193629
0.00232933
0.00267718
0.00298276
0.00338117
0.00462838
0.00360556
-8.86704e-07
-0.000351254
8.89453e-06
-0.000448921
3.42917e-05
-0.000466528
8.30529e-05
-0.000415697
0.000164815
-0.000300072
0.000291571
-0.00011728
0.000477072
0.000140143
0.000737703
0.000488559
0.00108349
0.000915277
0.00152877
0.00149101
0.00205137
0.00215458
0.00267923
0.00275331
0.00398064
0.00332697
-2.01041e-06
-0.00015915
-2.62123e-06
-0.000350644
3.73515e-06
-0.000455277
2.30166e-05
-0.00048581
6.19752e-05
-0.000454656
0.000128857
-0.000366953
0.00023393
-0.000222354
0.000389238
-1.51651e-05
0.000610484
0.000267313
0.000906324
0.000619437
0.0013009
0.00109643
0.00177348
0.001682
0.00235558
0.00217121
0.00333041
0.00300581
-2.27023e-06
-0.00015688
-4.39926e-06
-0.000348515
-1.30694e-06
-0.00045837
1.2338e-05
-0.000499455
4.24602e-05
-0.000484778
9.61324e-05
-0.000420626
0.000182089
-0.00030831
0.000310709
-0.000143786
0.000496087
8.1935e-05
0.000745749
0.000369775
0.00108784
0.00075434
0.00150562
0.00126422
0.00202819
0.00164864
0.00270221
0.00265639
-2.6004e-06
-0.00015428
-6.27291e-06
-0.000344842
-6.33612e-06
-0.000458307
2.0426e-06
-0.000507834
2.41054e-05
-0.000506841
6.59552e-05
-0.000462475
0.000135001
-0.000377355
0.000240105
-0.00024889
0.000393311
-7.12716e-05
0.000601672
0.000161415
0.000892027
0.000463985
0.00125466
0.000901587
0.00171068
0.00119263
0.00211838
0.0022945
-3.00769e-06
-0.000151272
-8.27174e-06
-0.000339578
-1.14254e-05
-0.000455153
-8.03382e-06
-0.000511225
6.59709e-06
-0.000521472
3.77605e-05
-0.000493639
9.17491e-05
-0.000431344
0.000176081
-0.000333222
0.000300719
-0.00019591
0.000472675
-1.05416e-05
0.000714083
0.000222577
0.0010241
0.000591574
0.00141216
0.000804568
0.00159539
0.00193515
-3.49418e-06
-0.000147778
-1.04098e-05
-0.000332662
-1.6617e-05
-0.000448946
-1.79917e-05
-0.00050985
-1.02907e-05
-0.000529173
1.11127e-05
-0.000515042
5.15804e-05
-0.000471812
0.000117455
-0.000399097
0.000216839
-0.000295294
0.000356722
-0.000150424
0.000553429
2.58704e-05
0.00081457
0.000330433
0.00113729
0.000481852
0.00114204
0.00159063
-4.05762e-06
-0.00014372
-1.26873e-05
-0.000324033
-2.19257e-05
-0.000439707
-2.78884e-05
-0.000503888
-2.67029e-05
-0.000530358
-1.42929e-05
-0.000527452
1.39267e-05
-0.000500031
6.32629e-05
-0.000448433
0.000140314
-0.000372345
0.000251741
-0.00026185
0.000408731
-0.00013112
0.000624895
0.000114269
0.000887432
0.000219315
0.000759989
0.00126949
-4.69187e-06
-0.000139028
-1.50927e-05
-0.000313632
-2.73422e-05
-0.000427458
-3.77372e-05
-0.000493493
-4.27128e-05
-0.000525383
-3.86535e-05
-0.000531511
-2.16464e-05
-0.000517038
1.26926e-05
-0.000482772
7.00285e-05
-0.000429681
0.000155951
-0.000347773
0.000278294
-0.000253463
0.00045309
-6.05266e-05
0.00066207
1.03358e-05
0.000445739
0.00097632
-5.38742e-06
-0.000133641
-1.76039e-05
-0.000301415
-3.28364e-05
-0.000412225
-4.7515e-05
-0.000478814
-5.83327e-05
-0.000514565
-6.20666e-05
-0.000527778
-5.53648e-05
-0.00052374
-3.44319e-05
-0.000503705
5.59005e-06
-0.000469703
6.78455e-05
-0.000410029
0.00016044
-0.000346057
0.000297121
-0.000197208
0.000459807
-0.000152351
0.000193098
0.000712448
-6.13194e-06
-0.000127509
-2.01905e-05
-0.000287357
-3.83615e-05
-0.000394054
-5.71694e-05
-0.000460006
-7.3526e-05
-0.000498209
-8.45462e-05
-0.000516757
-8.73531e-05
-0.000520933
-7.87504e-05
-0.000512308
-5.54881e-05
-0.000492965
-1.37347e-05
-0.000451782
5.40932e-05
-0.000413885
0.000155163
-0.000298277
0.000278914
-0.000276102
-4.80563e-06
0.000476818
-6.91087e-06
-0.000120598
-2.28157e-05
-0.000271452
-4.38579e-05
-0.000373012
-6.66254e-05
-0.000437238
-8.82177e-05
-0.000476616
-0.000106044
-0.000498931
-0.000117638
-0.000509339
-0.000120334
-0.000509612
-0.000111609
-0.00050169
-8.6845e-05
-0.000476546
-4.39959e-05
-0.000456734
2.4346e-05
-0.000366619
0.000117972
-0.000369729
-0.00015385
0.000267017
-7.70805e-06
-0.00011289
-2.54376e-05
-0.000253722
-4.9257e-05
-0.000349193
-7.57922e-05
-0.000410703
-0.000102306
-0.000450103
-0.000126465
-0.000474772
-0.000146158
-0.000489646
-0.000159175
-0.000496594
-0.000163518
-0.000497348
-0.0001551
-0.000484963
-0.000134518
-0.000477317
-8.83067e-05
-0.00041283
-2.51644e-05
-0.000432871
-0.000258516
7.95011e-05
-8.5063e-06
-0.000104384
-2.80118e-05
-0.000234217
-5.44844e-05
-0.00032272
-8.45688e-05
-0.000380619
-0.000115669
-0.000419003
-0.000145682
-0.00044476
-0.000172803
-0.000462525
-0.000195217
-0.00047418
-0.000211338
-0.000481226
-0.000217781
-0.000478521
-0.000215683
-0.000479415
-0.000191279
-0.000437234
-0.000161045
-0.000463105
-0.000333846
-8.57147e-05
-9.28801e-06
-9.50956e-05
-3.04924e-05
-0.000213013
-5.94632e-05
-0.000293749
-9.28494e-05
-0.000347233
-0.000128179
-0.000383673
-0.00016355
-0.000409389
-0.000197426
-0.000428649
-0.000228333
-0.000443273
-0.000255016
-0.000454543
-0.00027477
-0.000458767
-0.00028864
-0.000465545
-0.000284698
-0.000441176
-0.000278962
-0.000468841
-0.000380331
-0.000232477
-1.00357e-05
-8.50599e-05
-3.28338e-05
-0.000190214
-6.4117e-05
-0.000262466
-0.000100528
-0.000310822
-0.000139702
-0.000344498
-0.000179915
-0.000369176
-0.000219863
-0.000388701
-0.000258364
-0.000404772
-0.000294432
-0.000418475
-0.00032597
-0.000427229
-0.000353728
-0.000437787
-0.000368153
-0.000426751
-0.000382636
-0.000454358
-0.000399159
-0.000363807
-1.07323e-05
-7.43276e-05
-3.49922e-05
-0.000165954
-6.83719e-05
-0.000229086
-0.000107501
-0.000271693
-0.000150109
-0.00030189
-0.000194625
-0.000324661
-0.000239945
-0.000343381
-0.000285133
-0.000359583
-0.000329431
-0.000374178
-0.000371251
-0.000385408
-0.00041106
-0.000397978
-0.000441612
-0.000396199
-0.000473319
-0.000422651
-0.000392703
-0.000479775
-1.13621e-05
-6.29655e-05
-3.69263e-05
-0.00014039
-7.21593e-05
-0.000193853
-0.000113674
-0.000230178
-0.000159279
-0.000256285
-0.000207534
-0.000276406
-0.000257506
-0.000293409
-0.000308465
-0.000308624
-0.000359843
-0.0003228
-0.000410469
-0.000334782
-0.000460616
-0.00034783
-0.000505039
-0.000351777
-0.000551562
-0.000376128
-0.000363766
-0.000580499
-1.19107e-05
-5.10549e-05
-3.85991e-05
-0.000113702
-7.54169e-05
-0.000157036
-0.000118959
-0.000186636
-0.0001671
-0.000208144
-0.00021851
-0.000224996
-0.000272395
-0.000239524
-0.000328194
-0.000252825
-0.000385497
-0.000265497
-0.00044347
-0.000276809
-0.000502294
-0.000289007
-0.000558333
-0.000295738
-0.000617468
-0.000316993
-0.000315489
-0.000665744
-1.23654e-05
-3.86894e-05
-3.99782e-05
-8.6089e-05
-7.80909e-05
-0.000118923
-0.000123281
-0.000141446
-0.000173478
-0.000157947
-0.000227437
-0.000171037
-0.000284478
-0.000182484
-0.000344171
-0.000193131
-0.000406238
-0.00020343
-0.000470104
-0.000212943
-0.000535936
-0.000223175
-0.000601334
-0.000230339
-0.000670847
-0.00024748
-0.000251315
-0.000735021
-1.2716e-05
-2.59734e-05
-4.10369e-05
-5.77682e-05
-8.01368e-05
-7.98232e-05
-0.00012658
-9.50027e-05
-0.000178333
-0.000106194
-0.00023422
-0.00011515
-0.000293643
-0.000123062
-0.000356272
-0.000130502
-0.000421926
-0.000137775
-0.000490227
-0.000144642
-0.00056137
-0.000152033
-0.000633843
-0.000157866
-0.000711356
-0.000169968
-0.000174951
-0.00078772
-1.29543e-05
-1.30191e-05
-4.17545e-05
-2.8968e-05
-8.15204e-05
-4.00572e-05
-0.000128806
-4.7717e-05
-0.000181606
-5.33941e-05
-0.000238786
-5.79694e-05
-0.000299804
-6.20436e-05
-0.000364398
-6.59085e-05
-0.000432454
-6.97193e-05
-0.000503722
-7.33739e-05
-0.000578437
-7.73188e-05
-0.000655662
-8.06399e-05
-0.000738629
-8.70006e-05
-9.03241e-05
-0.000823256
-1.30749e-05
-4.21171e-05
-8.22187e-05
-0.000129929
-0.000183254
-0.000241084
-0.000302903
-0.000368483
-0.000437745
-0.000510502
-0.000587015
-0.000666632
-0.000752368
-0.000841172
-0.000851962
1.02933e-05
4.48984e-07
-0.000863462
1.10242e-05
4.76015e-07
-0.000875485
1.15198e-05
5.03862e-07
-0.000887925
1.19074e-05
5.32384e-07
-0.000900732
1.22453e-05
5.61354e-07
-0.000913886
1.25639e-05
5.9049e-07
-0.000927388
1.28824e-05
6.19468e-07
-0.000941249
1.32134e-05
6.47922e-07
-0.000955491
1.35657e-05
6.7545e-07
-0.000970138
1.39456e-05
7.01605e-07
-0.000985222
1.43586e-05
7.25905e-07
-0.00100078
1.48096e-05
7.47827e-07
-0.00101685
1.53028e-05
7.66811e-07
-0.00103347
1.58424e-05
7.82256e-07
-0.0010507
1.64318e-05
7.93516e-07
-0.00106857
1.70741e-05
7.99879e-07
-0.00108715
1.7772e-05
8.00547e-07
-0.00110647
1.85271e-05
7.94596e-07
-0.00112659
1.93404e-05
7.80923e-07
-0.00114756
2.02117e-05
7.5819e-07
-0.00116942
2.11396e-05
7.2476e-07
-0.00119222
2.21208e-05
6.78654e-07
-0.00121599
2.31498e-05
6.17544e-07
-0.00124075
2.4218e-05
5.38823e-07
-0.0012665
2.53128e-05
4.39783e-07
-0.00129323
2.64159e-05
3.17952e-07
-0.00132091
2.75015e-05
1.71606e-07
-0.00134944
2.85341e-05
4.8725e-10
-0.00137871
2.94655e-05
-1.93288e-07
-0.00140854
3.02322e-05
-4.04459e-07
-0.00143867
3.07529e-05
-6.23653e-07
-0.00146876
3.09266e-05
-8.3708e-07
-0.00149837
3.06327e-05
-1.0267e-06
-0.00152693
2.97336e-05
-1.17149e-06
-0.00155376
2.80819e-05
-1.24987e-06
-0.00157805
2.55335e-05
-1.24357e-06
-0.00159888
2.197e-05
-1.14267e-06
-0.00161526
1.73358e-05
-9.51074e-07
-0.00162626
1.16951e-05
-6.91451e-07
-0.00163117
5.30766e-06
-4.06687e-07
-0.00162986
-1.14803e-06
-1.56476e-07
-6.03902e-06
-3.91421e-09
-0.000833913
2.08078e-05
-0.000845194
2.23057e-05
-0.000857008
2.33335e-05
-0.000869245
2.41449e-05
-0.000881855
2.48545e-05
-0.000894813
2.5522e-05
-0.000908117
2.61864e-05
-0.000921777
2.68734e-05
-0.000935811
2.76003e-05
-0.000950246
2.83805e-05
-0.000965112
2.92245e-05
-0.000980444
3.01417e-05
-0.000996282
3.11404e-05
-0.00101267
3.22282e-05
-0.00102965
3.34117e-05
-0.00104727
3.46965e-05
-0.00106558
3.6087e-05
-0.00108464
3.7586e-05
-0.0011045
3.91946e-05
-0.0011252
4.09111e-05
-0.00114679
4.27311e-05
-0.00116931
4.46464e-05
-0.00119281
4.66438e-05
-0.00121729
4.8704e-05
-0.00124278
5.07991e-05
-0.00126926
5.28906e-05
-0.00129668
5.4926e-05
-0.00132498
5.68344e-05
-0.00135404
5.85229e-05
-0.00138368
5.98712e-05
-0.00141365
6.07276e-05
-0.00144363
6.09058e-05
-0.00147318
6.01843e-05
-0.00150176
5.83106e-05
-0.00152869
5.50125e-05
-0.00155318
5.00196e-05
-0.00157431
4.31014e-05
-0.00159111
3.41349e-05
-0.00160262
2.32108e-05
-0.0016081
1.07858e-05
-0.00160734
-1.90932e-06
-1.16176e-05
-0.000798025
3.08777e-05
-0.000808879
3.31595e-05
-0.000820281
3.47354e-05
-0.000832122
3.59854e-05
-0.000844343
3.70761e-05
-0.000856917
3.80956e-05
-0.000869834
3.91034e-05
-0.0008831
4.01397e-05
-0.000896732
4.12322e-05
-0.000910753
4.24015e-05
-0.000925193
4.36643e-05
-0.000940086
4.50347e-05
-0.000955471
4.65256e-05
-0.000971391
4.81481e-05
-0.000987892
4.99123e-05
-0.00100502
5.18267e-05
-0.00102283
5.38977e-05
-0.00104138
5.61295e-05
-0.0010607
5.85235e-05
-0.00108087
6.10772e-05
-0.00110192
6.37835e-05
-0.00112391
6.66296e-05
-0.00114686
6.95954e-05
-0.00117081
7.26509e-05
-0.00119576
7.57542e-05
-0.00122172
7.88473e-05
-0.00124864
8.18519e-05
-0.00127647
8.46639e-05
-0.0013051
8.71473e-05
-0.00133435
8.91276e-05
-0.00136401
9.03859e-05
-0.00139376
9.06538e-05
-0.00142319
8.96126e-05
-0.00145178
8.68984e-05
-0.00147888
8.21157e-05
-0.00150373
7.48674e-05
-0.00152543
6.4806e-05
-0.00154302
5.17265e-05
-0.00155553
3.57182e-05
-0.00156214
1.73981e-05
-0.00156246
-1.59018e-06
-1.6265e-05
-0.00074478
4.03118e-05
-0.000755019
4.33987e-05
-0.000765825
4.55418e-05
-0.000777089
4.72494e-05
-0.000788748
4.87352e-05
-0.000800765
5.01119e-05
-0.000813122
5.14606e-05
-0.00082582
5.28382e-05
-0.000838872
5.4284e-05
-0.000852298
5.58273e-05
-0.000866125
5.74915e-05
-0.000880387
5.92966e-05
-0.000895122
6.126e-05
-0.000910371
6.33973e-05
-0.00092618
6.5722e-05
-0.0009426
6.8246e-05
-0.00095968
7.09782e-05
-0.000977476
7.39249e-05
-0.00099604
7.7088e-05
-0.00101543
8.04648e-05
-0.00103569
8.40463e-05
-0.00105688
8.78159e-05
-0.00107903
9.17469e-05
-0.00110218
9.58002e-05
-0.00112634
9.99203e-05
-0.00115153
0.000104031
-0.00117771
0.000108031
-0.00120483
0.000111785
-0.0012328
0.000115115
-0.00126147
0.000117798
-0.00129063
0.000119551
-0.00132001
0.000120029
-0.00134922
0.000118822
-0.00137778
0.000115458
-0.00140508
0.000109422
-0.00143041
0.000100192
-0.0014529
8.72969e-05
-0.0014716
7.04324e-05
-0.00148553
4.96463e-05
-0.00149381
2.56741e-05
-0.00149574
3.38058e-07
-1.95073e-05
-0.000674805
4.89618e-05
-0.000684278
5.28723e-05
-0.000694334
5.55974e-05
-0.000704866
5.77818e-05
-0.00071581
5.9679e-05
-0.000727119
6.14207e-05
-0.000738768
6.31095e-05
-0.00075075
6.48205e-05
-0.000763073
6.66062e-05
-0.000775751
6.85059e-05
-0.000788811
7.0551e-05
-0.000802282
7.27677e-05
-0.000816201
7.51789e-05
-0.000830608
7.78046e-05
-0.000845549
8.0663e-05
-0.000861072
8.37693e-05
-0.00087723
8.71358e-05
-0.000894076
9.07711e-05
-0.000911667
9.4679e-05
-0.000930059
9.8857e-05
-0.000949308
0.000103295