/*--------------------------------*- C++ -*----------------------------------*\
  =========                 |
  \\      /  F ield         | OpenFOAM: The Open Source CFD Toolbox
   \\    /   O peration     | Website:  https://openfoam.org
    \\  /    A nd           | Version:  7
     \\/     M anipulation  |
\*---------------------------------------------------------------------------*/
FoamFile
{
    version     2.0;
    format      ascii;
    class       volVectorField;
    location    "25";
    object      U;
}
// * * * * * * * * * * * * * * * * * * * * * * * * * * * * * * * * * * * * * //

dimensions      [0 1 -1 0 0 0 0];

internalField   nonuniform List<vector> 
8330
(
(-0.00284224 0.00129899 4.77756e-22)
(-0.0152933 0.00259468 1.95634e-21)
(-0.0351381 0.00317377 2.65043e-21)
(-0.0552342 0.00335073 -6.82148e-22)
(-0.0753349 0.00330546 -7.30503e-22)
(-0.0940794 0.0031562 -1.6681e-23)
(-0.111418 0.00296353 1.22395e-21)
(-0.127252 0.00275629 2.67055e-22)
(-0.14169 0.00254668 1.61841e-21)
(-0.154747 0.00233037 1.99169e-22)
(-0.16663 0.00213408 1.34336e-21)
(-0.17711 0.00191101 1.37228e-21)
(-0.187184 0.00184728 -2.16455e-22)
(-0.19547 0.00164185 7.97893e-22)
(-0.00295931 0.00386025 3.75596e-22)
(-0.0154584 0.00773161 -7.60403e-21)
(-0.0352234 0.0094789 1.24245e-21)
(-0.055185 0.0100288 8.87641e-22)
(-0.0751085 0.00991427 3.79589e-21)
(-0.093646 0.00948855 -1.63922e-21)
(-0.11075 0.00893435 -1.52463e-21)
(-0.126319 0.00833942 -4.52283e-21)
(-0.140465 0.00774132 6.19945e-22)
(-0.153187 0.00712604 1.46928e-21)
(-0.164714 0.00657519 -2.34851e-21)
(-0.174733 0.0059364 -2.08207e-21)
(-0.184379 0.00578886 -2.18809e-21)
(-0.191877 0.00517952 -2.0937e-21)
(-0.0031911 0.00637949 -5.28194e-22)
(-0.015786 0.012797 1.05006e-20)
(-0.0353928 0.0157054 -1.90577e-21)
(-0.0550865 0.0166291 7.90383e-21)
(-0.0746563 0.0164489 4.56627e-21)
(-0.0927802 0.0157504 -4.46271e-22)
(-0.109414 0.0148382 1.97646e-22)
(-0.124455 0.0138588 4.48812e-21)
(-0.138014 0.0128757 -5.76771e-21)
(-0.150065 0.0118621 -1.43823e-21)
(-0.16088 0.0109605 -8.79619e-22)
(-0.169974 0.0098799 6.67972e-21)
(-0.178782 0.00966279 -2.95952e-21)
(-0.184706 0.00855648 -1.8361e-21)
(-0.00353364 0.00882973 -1.39852e-21)
(-0.016272 0.0177445 4.26946e-21)
(-0.035645 0.0218017 -2.03165e-21)
(-0.0549398 0.0231001 -3.51068e-21)
(-0.0739814 0.0228598 8.68552e-22)
(-0.0914862 0.0218946 8.97002e-21)
(-0.107416 0.0206298 -9.80012e-21)
(-0.121662 0.0192712 -1.1327e-20)
(-0.134342 0.0179093 -1.1115e-21)
(-0.145381 0.0164987 2.41459e-21)
(-0.155136 0.0152545 -4.30566e-21)
(-0.162825 0.0136898 -2.96859e-21)
(-0.170423 0.0134318 3.13631e-21)
(-0.173987 0.0116727 1.23798e-20)
(-0.00398117 0.0111856 -8.83872e-21)
(-0.0169103 0.0225295 1.505e-21)
(-0.0359781 0.0277175 -1.00078e-20)
(-0.0547467 0.029391 1.68739e-21)
(-0.0730883 0.0290977 -9.1782e-21)
(-0.0897701 0.0278735 2.97781e-21)
(-0.104761 0.0262637 7.7519e-21)
(-0.117946 0.024533 2.53956e-21)
(-0.129451 0.0228006 4.34602e-21)
(-0.139131 0.0209959 -5.6586e-21)
(-0.147486 0.0194239 8.31735e-21)
(-0.153271 0.017319 -1.08827e-20)
(-0.159336 0.01707 1.30391e-21)
(-0.159746 0.0144408 -1.09478e-20)
(-0.00452634 0.0134237 6.63975e-21)
(-0.0176932 0.0271099 -1.48652e-20)
(-0.0363893 0.0334042 1.11623e-20)
(-0.0545091 0.0354518 -6.77564e-21)
(-0.0719824 0.0351133 -5.71625e-21)
(-0.0876389 0.0336394 -8.92251e-21)
(-0.101457 0.0316935 -8.03791e-21)
(-0.113313 0.0295996 5.89097e-21)
(-0.123347 0.0275077 -1.54503e-21)
(-0.131309 0.0253136 9.39366e-21)
(-0.137932 0.0234377 -5.38477e-21)
(-0.141271 0.0207263 1.30822e-20)
(-0.145543 0.0205644 5.96649e-22)
(-0.141983 0.0167945 3.96666e-21)
(-0.0051605 0.0155235 1.73077e-21)
(-0.0186113 0.0314469 -4.86585e-22)
(-0.0368755 0.0388156 -1.29466e-20)
(-0.054229 0.0412337 5.34258e-21)
(-0.0706697 0.040858 7.41865e-21)
(-0.0851006 0.0391444 1.15769e-20)
(-0.0975117 0.0368723 6.12028e-21)
(-0.107767 0.0344253 1.61929e-21)
(-0.11603 0.0319871 -1.14565e-20)
(-0.121899 0.0294109 -1.52035e-21)
(-0.126468 0.0272655 -1.29036e-21)
(-0.12676 0.0238782 -1.87008e-20)
(-0.129033 0.0239144 1.50546e-21)
(-0.120634 0.0186994 -3.62637e-21)
(-0.005874 0.0174673 4.83735e-22)
(-0.019654 0.0355056 3.28839e-21)
(-0.0374325 0.0439081 1.83438e-21)
(-0.053908 0.0466897 9.16673e-21)
(-0.0691558 0.0462835 4.67658e-21)
(-0.0821625 0.0443402 -1.68921e-20)
(-0.0929323 0.0417524 5.89869e-21)
(-0.10131 0.0389634 2.38944e-21)
(-0.107497 0.0361935 1.07146e-21)
(-0.110872 0.0332461 6.89695e-21)
(-0.113074 0.0308746 5.32569e-21)
(-0.10963 0.0267506 1.51199e-20)
(-0.109749 0.0271246 1.03874e-20)
(-0.0955427 0.0201711 -8.10793e-21)
(-0.00665658 0.0192409 8.94259e-21)
(-0.0208096 0.0392552 -1.44808e-20)
(-0.0380553 0.0486415 -3.07142e-21)
(-0.0535468 0.0517745 -1.13035e-20)
(-0.0674454 0.0513422 -7.60995e-22)
(-0.0788303 0.0491787 1.81912e-21)
(-0.0877221 0.0462856 1.07834e-21)
(-0.0939387 0.0431666 -2.3624e-20)
(-0.0977361 0.0400802 2.52337e-20)
(-0.0981842 0.0367774 -1.19812e-21)
(-0.0977068 0.0342262 -1.97982e-21)
(-0.0897374 0.0293325 -1.11139e-20)
(-0.0875565 0.0301785 1.14091e-20)
(-0.0664312 0.0213206 -7.52276e-21)
(-0.00749771 0.0208338 1.83766e-20)
(-0.0220656 0.0426697 6.4162e-21)
(-0.0387375 0.0529792 -8.69093e-22)
(-0.0531445 0.0564449 -3.3029e-21)
(-0.0655411 0.0559882 2.11381e-20)
(-0.0751063 0.0536123 -6.2849e-21)
(-0.0818793 0.0504237 5.13816e-21)
(-0.0856397 0.046987 1.61665e-20)
(-0.0867231 0.0435984 -1.09498e-20)
(-0.0837697 0.0399632 -6.01017e-21)
(-0.0802922 0.037269 -3.88139e-21)
(-0.0669041 0.0316452 -1.94615e-20)
(-0.0622061 0.032946 -1.73801e-20)
(-0.0329278 0.0224353 6.61515e-21)
(-0.00838701 0.022239 -2.0609e-20)
(-0.0234089 0.0457278 1.84639e-20)
(-0.0394715 0.0568884 -1.44249e-20)
(-0.0526979 0.0606609 2.2691e-20)
(-0.0634414 0.0601766 -1.0127e-21)
(-0.0709869 0.0575943 1.95466e-20)
(-0.075393 0.0541189 5.82739e-21)
(-0.0763871 0.0503778 -1.27887e-20)
(-0.074413 0.0466995 -1.52902e-20)
(-0.0675362 0.0427672 -9.56422e-21)
(-0.0606917 0.0399203 3.06708e-23)
(-0.0409686 0.0338036 2.55671e-20)
(-0.0332727 0.035107 -9.08983e-21)
(0.00533279 0.023889 1.20733e-20)
(-0.0093146 0.0234535 6.70421e-21)
(-0.0248258 0.0484138 1.21005e-20)
(-0.0402479 0.0603411 1.66689e-20)
(-0.0522001 0.0643855 -3.36169e-20)
(-0.0611395 0.0638653 -2.49583e-20)
(-0.06646 0.0610797 -1.60989e-20)
(-0.0682392 0.0573249 -2.15093e-20)
(-0.0661349 0.0532944 1.31019e-20)
(-0.060731 0.049337 2.25758e-20)
(-0.0493717 0.0451799 2.22306e-20)
(-0.0386456 0.0420373 -1.78912e-20)
(-0.0117855 0.0359939 -1.52194e-20)
(-0.000368079 0.0367211 9.65867e-21)
(0.049248 0.0255487 4.91137e-21)
(-0.0102714 0.0244779 -2.00264e-20)
(-0.0263025 0.0507167 -1.89644e-20)
(-0.0410548 0.0633136 7.65889e-21)
(-0.0516396 0.0675855 -2.0111e-20)
(-0.0586207 0.0670149 1.14915e-20)
(-0.0615013 0.0640262 2.14658e-20)
(-0.0603754 0.0599985 1.12659e-20)
(-0.0548095 0.0556957 -8.35812e-21)
(-0.0455479 0.0514604 -1.33823e-20)
(-0.0291583 0.0472454 1.81256e-21)
(-0.0137924 0.0435297 8.93385e-21)
(0.0212087 0.0380423 1.83726e-20)
(0.0364894 0.038261 -2.57353e-22)
(0.100226 0.0273002 -1.21481e-20)
(-0.0112496 0.0253163 7.26536e-21)
(-0.0278247 0.0526309 -1.152e-20)
(-0.0418771 0.0657876 -1.726e-20)
(-0.0509985 0.070232 2.73276e-20)
(-0.0558594 0.0695901 -4.00882e-20)
(-0.0560696 0.0663955 -1.2363e-20)
(-0.0517334 0.0621013 -2.15342e-20)
(-0.0423049 0.0575476 1.76553e-20)
(-0.0286475 0.0530069 -2.23296e-20)
(-0.0066657 0.0489335 -2.0838e-20)
(0.0140766 0.0445145 4.08393e-21)
(0.058878 0.0397469 1.23943e-20)
(0.0776422 0.03976 -7.95026e-21)
(0.159294 0.0295072 -3.48389e-21)
(-0.0122425 0.0259758 1.73421e-20)
(-0.0293778 0.0541556 -4.28431e-21)
(-0.0426959 0.0677497 -7.72725e-21)
(-0.0502504 0.0723014 -9.5992e-21)
(-0.0528161 0.0715605 2.86868e-20)
(-0.0501023 0.0681552 3.12789e-21)
(-0.0422116 0.0636026 5.44211e-21)
(-0.0284795 0.0588284 -2.47237e-20)
(-0.00979374 0.0539893 4.70191e-21)
(0.0185572 0.0501543 -1.26517e-20)
(0.0453251 0.0450831 3.93095e-21)
(0.101899 0.0413734 -2.63948e-20)
(0.123788 0.0408588 2.58968e-21)
(0.227404 0.0325753 1.10209e-20)
(-0.0132451 0.0264662 -2.57901e-21)
(-0.0309465 0.0552946 -1.84285e-20)
(-0.0434873 0.069192 1.21962e-20)
(-0.0493586 0.0737756 -8.97896e-21)
(-0.0494334 0.0729024 1.19377e-20)
(-0.0435083 0.0692803 -3.33958e-21)
(-0.0316631 0.0644822 1.45073e-20)
(-0.0131054 0.0595258 1.26157e-20)
(0.0112969 0.0544581 3.87591e-20)
(0.0469805 0.0509558 2.90777e-20)
(0.0806331 0.0451648 1.47124e-20)
(0.150925 0.0433254 4.02945e-20)
(0.175808 0.0414021 6.76724e-21)
(0.305277 0.0368013 7.0834e-22)
(-0.0142535 0.0267994 1.71777e-20)
(-0.0325142 0.0560555 4.47872e-20)
(-0.0442211 0.070112 2.15186e-20)
(-0.0482732 0.0746431 2.98362e-20)
(-0.0456318 0.0735994 -3.06209e-20)
(-0.0361623 0.0697559 4.86357e-21)
(-0.0198934 0.0647339 5.72679e-21)
(0.00412189 0.0596435 2.8999e-20)
(0.0350642 0.0544268 -3.66134e-20)
(0.0791322 0.0515006 -1.51514e-20)
(0.120882 0.044787 -1.88647e-20)
(0.206564 0.0459666 -6.59331e-21)
(0.234859 0.0415686 -2.04336e-20)
(0.39303 0.0424109 2.57615e-20)
(-0.0152654 0.0269889 -1.94786e-20)
(-0.0340628 0.0564498 5.59381e-21)
(-0.0448592 0.0705128 1.902e-20)
(-0.0469285 0.0748997 1.11165e-21)
(-0.0413047 0.0736451 -4.12213e-21)
(-0.027896 0.0695799 -1.82311e-20)
(-0.00664507 0.0643706 -1.58143e-21)
(0.0235808 0.0592245 -8.07884e-21)
(0.0620717 0.0539522 4.46487e-20)
(0.115654 0.0519542 -4.46474e-21)
(0.167135 0.0441745 -1.83793e-22)
(0.269196 0.0495434 -2.13635e-20)
(0.302374 0.041907 3.06049e-21)
(0.489803 0.0495579 -2.14528e-20)
(-0.0162794 0.0270489 6.21534e-21)
(-0.0355715 0.0564917 -1.19623e-20)
(-0.0453543 0.0704029 -4.53985e-20)
(-0.0452399 0.074549 -2.0289e-20)
(-0.0363139 0.0730442 1.16271e-20)
(-0.0184922 0.0687659 2.33853e-21)
(0.00841272 0.0634274 1.98163e-20)
(0.0457436 0.0583442 -2.74475e-20)
(0.0929923 0.0531616 -2.27447e-20)
(0.157274 0.0524817 2.52433e-20)
(0.220571 0.0437926 4.20714e-21)
(0.338834 0.0541064 -7.52705e-21)
(0.379718 0.0433453 1.21824e-20)
(0.593449 0.0583208 2.54544e-20)
(-0.0172949 0.0269939 5.02757e-21)
(-0.0370163 0.0561972 1.85844e-21)
(-0.0456478 0.0697962 -3.74944e-21)
(-0.0431011 0.073604 2.03432e-20)
(-0.0304844 0.0718146 -1.57562e-21)
(-0.00767751 0.0673474 3.18135e-20)
(0.0256896 0.0619682 8.45638e-22)
(0.071182 0.0571161 2.09191e-20)
(0.128592 0.0522576 5.94302e-21)
(0.204766 0.053247 -1.64655e-20)
(0.282265 0.0443377 1.61455e-20)
(0.415098 0.0595253 5.18347e-20)
(0.46755 0.0469635 -1.77174e-20)
(0.700466 0.068682 -5.36432e-20)
(-0.0183114 0.0268375 3.79532e-21)
(-0.038368 0.0555838 1.96019e-21)
(-0.0456687 0.0687121 -4.71954e-21)
(-0.0403813 0.072087 -3.90928e-20)
(-0.0236005 0.0699895 -1.36887e-20)
(0.00488215 0.0653807 -1.59103e-20)
(0.0456757 0.060091 -5.82604e-21)
(0.100558 0.055699 -5.45781e-21)
(0.169683 0.0515244 2.20217e-22)
(0.258879 0.054427 1.06494e-20)
(0.352831 0.0466069 -1.63851e-20)
(0.497266 0.0656503 -6.50077e-21)
(0.565057 0.0535938 3.12464e-21)
(0.806343 0.0804571 6.60676e-20)
(-0.0395915 0.0546688 1.74103e-21)
(-0.0453311 0.0671759 3.4571e-20)
(-0.0369219 0.0700304 2.35608e-20)
(-0.0154022 0.0676194 1.55354e-20)
(0.0195843 0.0629486 -1.41393e-20)
(0.0689365 0.057933 -1.9767e-20)
(0.134598 0.0543019 -4.4217e-21)
(0.217045 0.0513218 8.83973e-21)
(0.320243 0.0562624 -3.34155e-20)
(0.432029 0.0512479 -2.49716e-20)
(0.584284 0.0725122 -1.29727e-20)
(0.66945 0.0634685 1.10818e-20)
(0.906273 0.0932052 -7.24156e-20)
(-0.0406454 0.0534713 4.55807e-21)
(-0.0445318 0.0652161 -1.46905e-20)
(-0.0325354 0.0674776 -1.70587e-20)
(-0.00558333 0.0647738 -9.83964e-21)
(0.0368879 0.060164 -3.61161e-21)
(0.0960984 0.0556745 -9.11548e-21)
(0.174052 0.0531867 1.55083e-20)
(0.271308 0.0520544 -2.55533e-20)
(0.389188 0.0591154 1.6855e-20)
(0.518538 0.058528 1.21347e-20)
(0.674618 0.0803553 5.08198e-21)
(0.776122 0.0761256 2.1377e-20)
(0.996 0.106224 6.41619e-20)
(-0.0414819 0.0520109 -2.24776e-20)
(-0.0431492 0.062864 -1.78974e-20)
(-0.0270031 0.0644831 1.8661e-20)
(0.00620735 0.061543 3.74455e-21)
(0.0573062 0.0571723 3.74742e-22)
(0.127821 0.0535419 -1.65323e-20)
(0.219614 0.052667 -3.04372e-20)
(0.332816 0.0541212 1.79082e-20)
(0.46549 0.0634573 -9.10067e-21)
(0.610013 0.0682752 2.64434e-20)
(0.766052 0.0894356 -1.41702e-20)
(0.87952 0.0906039 -3.29304e-20)
(1.07249 0.118687 1.27624e-20)
(-0.0420427 0.0503038 -1.08014e-20)
(-0.0410445 0.0601564 1.80379e-20)
(-0.0200756 0.0611137 -4.22211e-21)
(0.020363 0.0580386 6.76452e-21)
(0.0813913 0.0541539 -1.19134e-20)
(0.164756 0.0518068 2.04837e-20)
(0.271823 0.0531006 -2.69433e-21)
(0.401482 0.0578636 -1.92558e-20)
(0.548093 0.0697345 3.92084e-20)
(0.703381 0.0799981 -3.03827e-20)
(0.855688 0.0997558 3.01698e-20)
(0.974384 0.10578 -3.02166e-21)
(1.13425 0.129845 -8.72244e-20)
(-0.0380611 0.0571359 1.92013e-20)
(-0.0114747 0.0574481 1.06674e-20)
(0.0373115 0.0543951 2.18633e-20)
(0.109712 0.0513233 3.29141e-20)
(0.207483 0.050781 1.48366e-20)
(0.330934 0.0548672 6.58608e-21)
(0.476644 0.0635257 4.95467e-20)
(0.634994 0.0781755 -1.2269e-20)
(0.795275 0.0930501 -8.02032e-22)
(0.940332 0.110979 -3.34659e-20)
(1.05676 0.120666 2.5056e-20)
(1.18129 0.139122 -1.33038e-20)
(-0.0340231 0.0538487 -3.36279e-20)
(-0.0008965 0.0535765 3.6142e-21)
(0.0575037 0.0507693 -1.13231e-20)
(0.142818 0.0489282 1.39481e-20)
(0.256433 0.0508037 -2.33349e-20)
(0.396781 0.0583252 1.88007e-21)
(0.556973 0.0712181 -3.78784e-21)
(0.723393 0.0886647 -1.9421e-20)
(0.882477 0.106737 1.0576e-20)
(1.01709 0.122578 3.8638e-20)
(1.12444 0.134534 6.02764e-21)
(1.21488 0.146062 7.84032e-20)
(-0.028737 0.0503443 2.74479e-20)
(0.0119838 0.0496014 -3.30397e-20)
(0.0813976 0.0473407 -4.87867e-21)
(0.181199 0.0472455 3.24744e-21)
(0.311788 0.052219 3.7741e-20)
(0.46866 0.0637496 2.88823e-20)
(0.640479 0.0808787 -2.93648e-20)
(0.81012 0.100759 -9.06279e-21)
(0.962321 0.120395 -8.54905e-21)
(1.08387 0.134057 -6.79251e-20)
(1.17693 0.146763 4.98012e-20)
(1.23727 0.150109 -5.16767e-21)
(-0.0219946 0.0466763 -2.67476e-20)
(0.0275049 0.0456374 1.17278e-20)
(0.109437 0.0443108 7.4751e-21)
(0.225223 0.0465739 -4.26745e-20)
(0.373381 0.0553419 6.88901e-21)
(0.545271 0.0712669 -3.83694e-20)
(0.724676 0.0922473 3.24269e-20)
(0.892167 0.113811 1.05478e-20)
(1.03297 0.133481 1.18712e-20)
(1.13956 0.145027 6.04564e-20)
(1.21523 0.156552 -3.17374e-20)
(1.25269 0.151245 7.94684e-21)
(0.0460111 0.0418119 -7.34535e-21)
(0.142026 0.0419025 -9.64255e-21)
(0.275072 0.0472198 2.90065e-20)
(0.440604 0.0604118 -1.73576e-20)
(0.62477 0.080808 -2.33866e-21)
(0.806894 0.104885 -3.74642e-20)
(0.967134 0.127139 -1.42007e-21)
(1.09346 0.145647 -2.71772e-20)
(1.18399 0.155051 -4.71434e-20)
(1.2418 0.163297 9.20605e-22)
(1.27367 0.157211 -9.45933e-20)
(0.067841 0.0382663 1.35449e-20)
(0.179491 0.0403575 1.70188e-20)
(0.330665 0.0494739 1.49466e-20)
(0.512366 0.0675423 -1.26287e-20)
(0.704946 0.0921034 -1.1321e-20)
(0.884668 0.118251 -1.06343e-20)
(1.03347 0.140158 1.40935e-20)
(1.14364 0.156697 -1.13024e-20)
(1.21791 0.163628 1.66349e-20)
(1.26166 0.169057 -4.43805e-20)
(1.28527 0.161618 -3.85529e-21)
(0.222045 0.0399319 -4.93311e-21)
(0.391592 0.0535766 -3.1003e-20)
(0.587133 0.0766836 -1.81733e-20)
(0.783493 0.104727 -4.89904e-21)
(0.956042 0.131798 2.8104e-20)
(1.09046 0.152451 -1.85107e-20)
(1.18397 0.166489 -7.99324e-21)
(1.24319 0.170932 2.03841e-20)
(1.27501 0.17377 3.61088e-21)
(1.29169 0.165282 1.14744e-19)
(0.269734 0.0408852 -1.70699e-20)
(0.457071 0.0596757 -2.48448e-21)
(0.663062 0.0876163 1.75896e-20)
(0.858299 0.118178 -4.43219e-21)
(1.01974 0.145064 2.19125e-20)
(1.13811 0.163759 1.08797e-21)
(1.21548 0.175037 1.70736e-20)
(1.26128 0.177094 1.10458e-20)
(1.28351 0.177683 6.60847e-20)
(1.29485 0.168301 -1.39345e-21)
(0.32239 0.0434604 2.20027e-20)
(0.525959 0.0677898 3.43853e-20)
(0.738205 0.0999855 1.69112e-20)
(0.927679 0.131962 2.30927e-20)
(1.07516 0.157704 -9.21561e-21)
(1.17696 0.173967 2.08579e-20)
(1.23937 0.182431 2.21314e-20)
(1.27368 0.182299 3.26801e-21)
(1.28836 0.180983 4.6096e-20)
(1.2954 0.170878 -1.12129e-19)
(0.596828 0.0777928 -3.03896e-20)
(0.810734 0.113365 1.48733e-20)
(0.990479 0.145657 1.15673e-20)
(1.12226 0.169505 -1.09389e-20)
(1.20787 0.183069 -4.10031e-20)
(1.2569 0.188808 -1.23245e-20)
(1.28165 0.186738 3.19489e-20)
(1.2905 0.183829 -1.52947e-20)
(1.29435 0.17314 2.52583e-20)
(0.668099 0.0894316 -9.23981e-21)
(0.879116 0.127323 -1.44847e-21)
(1.04609 0.158942 1.44802e-20)
(1.16144 0.18036 1.22216e-20)
(1.23184 0.19113 -2.85053e-20)
(1.26927 0.194328 -1.80736e-20)
(1.28626 0.190585 -4.16105e-20)
(1.2907 0.186351 -1.14409e-19)
(1.29215 0.175212 7.24733e-20)
(0.942223 0.141478 -3.47071e-20)
(1.09435 0.171602 -2.72335e-20)
(1.19336 0.19025 -1.97758e-20)
(1.24994 0.198261 9.65702e-20)
(1.27753 0.199152 2.35796e-20)
(1.28836 0.193994 2.67142e-20)
(1.28952 0.188654 -4.3914e-21)
(1.28919 0.177167 9.24921e-21)
(1.13546 0.183512 3.04212e-20)
(1.21882 0.199216 4.39367e-20)
(1.26316 0.204592 -3.94416e-20)
(1.28259 0.203429 -5.0384e-21)
(1.2886 0.197091 -5.8073e-20)
(1.28736 0.190818 2.08236e-20)
(1.2857 0.179063 -7.99251e-20)
(1.16988 0.194622 -3.921e-20)
(1.23868 0.207336 -7.6957e-20)
(1.27241 0.210258 2.48041e-21)
(1.28519 0.207295 -3.28344e-21)
(1.28749 0.199975 7.87468e-20)
(1.2845 0.192901 5.28996e-20)
(1.28186 0.180939 4.09387e-20)
(1.25377 0.214713 8.80966e-21)
(1.27847 0.215391 5.09374e-20)
(1.28592 0.210861 -3.1992e-20)
(1.2854 0.202726 3.6453e-20)
(1.28115 0.194946 -6.428e-20)
(1.27776 0.182818 -5.40084e-20)
(1.282 0.220108 -8.2438e-20)
(1.28523 0.214221 3.5903e-20)
(1.2826 0.2054 -2.52064e-20)
(1.27744 0.196983 3.16075e-20)
(1.27347 0.184717 6.09749e-20)
(1.28348 0.21745 6.93112e-20)
(1.27927 0.20804 -5.85781e-20)
(1.27346 0.199032 -3.28627e-20)
(1.26902 0.186644 -1.49919e-20)
(1.27554 0.210674 4.95264e-20)
(1.26925 0.201105 -2.95254e-20)
(1.26444 0.188605 -6.05017e-20)
(1.26486 0.203208 7.38713e-20)
(1.25974 0.1906 -1.76774e-20)
(1.25493 0.192628 6.14846e-20)
(1.25495 -0.192677 2.89569e-20)
(1.27152 -0.213372 3.97317e-20)
(1.26489 -0.203261 7.58045e-20)
(1.25976 -0.190652 -3.96796e-20)
(1.28095 -0.220659 -1.04451e-19)
(1.27556 -0.210728 4.93486e-20)
(1.26928 -0.201159 -6.25416e-20)
(1.26447 -0.188659 -4.88699e-20)
(1.2835 -0.217506 6.11334e-20)
(1.27929 -0.208096 -6.86649e-20)
(1.27348 -0.199089 -1.55312e-20)
(1.26905 -0.186701 -3.35307e-20)
(1.28202 -0.220166 9.72843e-22)
(1.28525 -0.214279 1.65591e-20)
(1.28262 -0.205459 -3.06606e-20)
(1.27747 -0.197042 3.71563e-20)
(1.2735 -0.184776 6.87195e-20)
(1.2538 -0.21477 7.31735e-20)
(1.27849 -0.21545 3.42975e-20)
(1.28593 -0.210921 -1.50621e-20)
(1.28542 -0.202787 1.78344e-20)
(1.28118 -0.195007 -4.60911e-20)
(1.27779 -0.18288 -6.48494e-20)
(1.16991 -0.194674 -7.26864e-21)
(1.23871 -0.207395 -7.28524e-20)
(1.27243 -0.210319 -6.18209e-21)
(1.28521 -0.207357 -7.22115e-22)
(1.28751 -0.200039 5.36524e-20)
(1.28453 -0.192965 5.1144e-20)
(1.28189 -0.181004 5.45527e-20)
(1.13549 -0.183562 3.22198e-20)
(1.21885 -0.199274 4.70449e-20)
(1.26318 -0.204654 -5.54327e-20)
(1.28261 -0.203495 -1.09139e-20)
(1.28862 -0.197157 -4.78773e-20)
(1.28738 -0.190884 -6.67658e-21)
(1.28574 -0.179132 -3.85576e-20)
(0.942225 -0.141514 3.5542e-21)
(1.09436 -0.171649 -3.84749e-20)
(1.19338 -0.190307 -3.37431e-21)
(1.24996 -0.198325 9.46516e-20)
(1.27755 -0.199219 1.29583e-20)
(1.28837 -0.194063 1.02276e-20)
(1.28954 -0.188724 1.64453e-21)
(1.28922 -0.177238 2.36129e-21)
(0.668073 -0.0894515 1.96557e-20)
(0.879108 -0.127355 1.70086e-21)
(1.04609 -0.158987 8.07893e-21)
(1.16146 -0.180416 -6.17419e-22)
(1.23186 -0.191194 -2.01346e-20)
(1.26929 -0.194397 -1.86092e-20)
(1.28628 -0.190657 -4.28135e-20)
(1.29072 -0.186424 -1.06267e-19)
(1.29218 -0.175288 7.44191e-20)
(0.596792 -0.077809 -2.63702e-20)
(0.810714 -0.113392 1.98985e-20)
(0.990476 -0.145698 5.8395e-21)
(1.12227 -0.169559 -1.89389e-20)
(1.20788 -0.183133 -4.35736e-20)
(1.25692 -0.188879 -2.92675e-21)
(1.28167 -0.186813 2.34796e-20)
(1.29052 -0.183906 -2.66934e-20)
(1.29439 -0.173219 4.52179e-20)
(0.322344 -0.0434664 8.70352e-21)
(0.525915 -0.0678023 4.17533e-20)
(0.738174 -0.100009 1.48526e-20)
(0.927664 -0.131999 2.15304e-20)
(1.07516 -0.157755 -5.85903e-21)
(1.17697 -0.17403 1.79308e-20)
(1.23939 -0.182503 1.32247e-20)
(1.2737 -0.182377 2.50193e-21)
(1.28838 -0.181063 4.16696e-20)
(1.29544 -0.170962 -8.9321e-20)
(0.269685 -0.0408886 -1.64399e-20)
(0.457021 -0.0596848 -7.38594e-21)
(0.66302 -0.0876354 2.15454e-20)
(0.858271 -0.118211 -1.0032e-20)
(1.01973 -0.145111 2.19258e-20)
(1.13812 -0.16382 2.4124e-20)
(1.21549 -0.17511 -7.13157e-21)
(1.2613 -0.177175 9.98653e-21)
(1.28353 -0.177766 6.5941e-20)
(1.29489 -0.168389 -4.61207e-21)
(0.0932755 -0.0351556 -1.69094e-21)
(0.221995 -0.0399326 -5.96471e-21)
(0.391536 -0.0535825 -3.05694e-20)
(0.587081 -0.0766986 -2.03756e-20)
(0.783451 -0.104755 8.32103e-21)
(0.956017 -0.131842 1.71388e-20)
(1.09045 -0.15251 -6.37311e-21)
(1.18398 -0.166562 8.48396e-22)
(1.2432 -0.171015 3.69976e-22)
(1.27503 -0.173857 2.25663e-21)
(1.29172 -0.165375 1.274e-19)
(0.0678029 -0.0382623 1.069e-20)
(0.17944 -0.0403556 2.381e-20)
(0.330606 -0.0494768 3.11176e-21)
(0.512305 -0.0675535 -9.80999e-21)
(0.704892 -0.092127 -1.7718e-21)
(0.884627 -0.11829 -1.47256e-20)
(1.03344 -0.140214 1.02157e-20)
(1.14363 -0.156768 1.13828e-20)
(1.21792 -0.163713 -2.03167e-20)
(1.26168 -0.169148 -2.66582e-20)
(1.28531 -0.161716 1.14304e-20)
(0.0459745 -0.0418053 -3.75451e-21)
(0.141975 -0.041898 -1.3506e-20)
(0.27501 -0.0472199 3.21136e-20)
(0.440536 -0.0604195 -1.39616e-20)
(0.624704 -0.0808274 -1.67266e-21)
(0.806839 -0.10492 -4.09667e-20)
(0.967095 -0.127192 -1.86462e-20)
(1.09344 -0.145716 -1.22973e-20)
(1.18399 -0.155136 -3.49131e-20)
(1.24181 -0.163391 -2.39067e-20)
(1.2737 -0.157314 -8.41856e-20)
(-0.022015 -0.0466667 6.1114e-21)
(0.02747 -0.0456281 1.39599e-20)
(0.109388 -0.0443038 4.60285e-21)
(0.22516 -0.0465714 -4.75109e-20)
(0.373309 -0.0553465 5.08697e-21)
(0.545195 -0.0712825 -2.36592e-20)
(0.724605 -0.0922774 2.5897e-20)
(0.89211 -0.11386 -1.02481e-21)
(1.03293 -0.133548 1.86699e-20)
(1.13954 -0.145112 7.05332e-20)
(1.21524 -0.156649 -4.66353e-20)
(1.25271 -0.151354 7.52564e-21)
(-0.0287554 -0.050332 3.30176e-20)
(0.0119508 -0.0495896 -3.8687e-20)
(0.0813492 -0.0473312 -5.26764e-21)
(0.181136 -0.0472406 -1.48596e-21)
(0.311713 -0.0522211 3.60969e-20)
(0.468577 -0.0637619 3.30193e-20)
(0.640396 -0.0809048 -2.65639e-20)
(0.810047 -0.100803 -9.22005e-22)
(0.962265 -0.120459 -1.91613e-20)
(1.08383 -0.13414 -5.86553e-20)
(1.17692 -0.146863 3.58789e-20)
(1.2373 -0.15022 -5.0911e-21)
(-0.0340392 -0.0538338 -3.83754e-20)
(-0.000927127 -0.0535623 9.7847e-21)
(0.0574574 -0.0507577 -9.5499e-21)
(0.142756 -0.0489214 1.18047e-20)
(0.256356 -0.0508037 -3.1118e-20)
(0.396694 -0.058335 1.79983e-21)
(0.55688 -0.0712408 2.14546e-21)
(0.723303 -0.0887051 -3.45177e-20)
(0.882401 -0.106798 2.36063e-20)
(1.01704 -0.12266 3.17492e-20)
(1.12441 -0.134635 1.74596e-20)
(1.21489 -0.146176 7.22424e-20)
(-0.0422601 -0.0483493 5.43088e-21)
(-0.0380749 -0.0571185 1.72436e-20)
(-0.0115027 -0.0574317 8.05041e-21)
(0.0372679 -0.0543818 2.37242e-20)
(0.109652 -0.0513151 3.75421e-20)
(0.207408 -0.0507795 7.76483e-21)
(0.330845 -0.0548752 5.39305e-21)
(0.476544 -0.0635458 5.0233e-20)
(0.634891 -0.0782129 -1.12122e-20)
(0.795179 -0.0931067 -2.94113e-22)
(0.940259 -0.111058 -2.99977e-20)
(1.05671 -0.120767 2.37727e-20)
(1.18129 -0.139238 -2.71117e-21)
(-0.0420427 -0.0502872 -1.30655e-20)
(-0.041056 -0.0601365 1.95862e-20)
(-0.0201007 -0.0610955 -4.04743e-21)
(0.0203228 -0.0580241 1.55848e-21)
(0.0813354 -0.0541447 -8.53182e-21)
(0.164684 -0.0518045 1.84883e-20)
(0.271734 -0.0531076 -9.61655e-22)
(0.401379 -0.0578822 -1.99608e-20)
(0.547982 -0.0697701 3.97375e-20)
(0.703268 -0.0800516 -1.71165e-20)
(0.855595 -0.0998326 1.65071e-20)
(0.974301 -0.105879 -3.87434e-21)
(1.13423 -0.129962 -7.94787e-20)
(-0.0414802 -0.0519919 -2.46513e-20)
(-0.0431582 -0.062842 -1.66461e-20)
(-0.0270252 -0.0644634 2.666e-20)
(0.00617097 -0.0615276 -3.0797e-21)
(0.0572547 -0.0571628 9.4695e-21)
(0.127754 -0.0535395 -2.28492e-20)
(0.219529 -0.0526739 -3.52762e-20)
(0.332714 -0.0541393 1.83401e-20)
(0.465375 -0.0634923 -9.86353e-21)
(0.609886 -0.0683267 2.52507e-20)
(0.765941 -0.0895112 -7.2683e-23)
(0.879407 -0.0907018 -3.20278e-20)
(1.07245 -0.118806 5.2309e-21)
(-0.0406421 -0.05345 8.7847e-21)
(-0.0445384 -0.0651923 -1.8282e-20)
(-0.0325542 -0.0674568 -2.11444e-20)
(-0.00561545 -0.0647582 -8.65728e-21)
(0.0368417 -0.0601548 7.0369e-21)
(0.0960367 -0.0556728 -2.30338e-20)
(0.173974 -0.0531945 2.32324e-20)
(0.27121 -0.0520733 -3.24373e-20)
(0.389075 -0.0591509 2.2533e-20)
(0.518405 -0.0585792 2.22126e-20)
(0.674497 -0.0804308 -8.48571e-21)
(0.775981 -0.0762231 3.2291e-20)
(0.995934 -0.106343 5.17234e-20)
(-0.0395866 -0.0546454 2.60538e-22)
(-0.0453353 -0.0671505 3.17081e-20)
(-0.0369373 -0.070009 2.53126e-20)
(-0.0154297 -0.067604 1.24963e-20)
(0.019544 -0.0629404 -8.37133e-21)
(0.0688819 -0.0579328 -1.56045e-20)
(0.134528 -0.0543114 -9.84463e-21)
(0.216955 -0.0513426 1.23127e-20)
(0.320135 -0.0562994 -4.20288e-20)
(0.431896 -0.0513011 -1.98328e-20)
(0.584157 -0.0725884 -1.70269e-20)
(0.669291 -0.0635678 6.07544e-21)
(0.906179 -0.0933254 -7.52907e-20)
(-0.0183044 -0.0268227 -4.83863e-21)
(-0.0383618 -0.0555585 -6.03456e-21)
(-0.0456706 -0.0686856 2.97224e-23)
(-0.0403933 -0.0720653 -3.42562e-20)
(-0.0236233 -0.0699749 -1.08464e-20)
(0.00484808 -0.065374 -2.20319e-20)
(0.045629 -0.060093 5.52681e-21)
(0.100496 -0.0557111 -1.19765e-20)
(0.169604 -0.0515483 -8.15887e-21)
(0.258782 -0.0544669 1.59317e-20)
(0.352705 -0.0466644 -1.66954e-20)
(0.497141 -0.0657281 -6.97112e-21)
(0.564893 -0.0536984 -5.30527e-21)
(0.806225 -0.0805799 7.74903e-20)
(-0.0172875 -0.0269777 6.30867e-22)
(-0.0370088 -0.0561701 -6.08845e-21)
(-0.0456476 -0.0697688 8.38577e-21)
(-0.0431098 -0.0735825 1.07372e-20)
(-0.0305025 -0.0718012 1.93431e-21)
(-0.00770511 -0.0673428 3.71648e-20)
(0.0256513 -0.061973 -1.13946e-20)
(0.0711311 -0.0571317 3.15661e-20)
(0.128524 -0.0522857 8.12236e-21)
(0.204682 -0.053291 -2.56243e-20)
(0.282153 -0.0444014 1.77793e-20)
(0.41498 -0.0596061 4.60531e-20)
(0.467394 -0.0470766 -1.54128e-20)
(0.700331 -0.0688093 -5.62836e-20)
(-0.0162716 -0.0270315 7.30514e-21)
(-0.0355631 -0.0564631 -1.38903e-20)
(-0.045352 -0.0703749 -5.13998e-20)
(-0.0452454 -0.0745281 -1.31968e-20)
(-0.0363272 -0.0730324 1.68222e-20)
(-0.0185133 -0.0687639 -5.96731e-22)
(0.0083829 -0.0634356 1.31655e-20)
(0.0457036 -0.058364 -1.98499e-20)
(0.0929384 -0.0531947 -3.02173e-20)
(0.157206 -0.0525311 2.49575e-20)
(0.220477 -0.0438638 1.94284e-21)
(0.33873 -0.0541925 -3.1328e-21)
(0.37958 -0.0434692 1.38209e-20)
(0.593308 -0.0584551 2.98606e-20)
(-0.0152573 -0.0269703 -2.10826e-20)
(-0.0340535 -0.0564201 1.1296e-20)
(-0.0448552 -0.0704846 1.27258e-20)
(-0.0469309 -0.0748797 3.33043e-21)
(-0.0413135 -0.0736353 3.27939e-21)
(-0.0279109 -0.0695807 -2.3998e-20)
(-0.00666652 -0.0643826 -4.91259e-21)
(0.0235516 -0.059249 -5.90759e-21)
(0.0620317 -0.0539912 3.87392e-20)
(0.115602 -0.0520103 6.1963e-21)
(0.167062 -0.0442539 1.44709e-21)
(0.26911 -0.0496373 -3.54435e-20)
(0.302263 -0.0420425 2.444e-21)
(0.48967 -0.0497022 -1.69849e-20)
(-0.0142453 -0.0267798 1.10523e-20)
(-0.0325043 -0.0560248 4.75891e-20)
(-0.0442155 -0.0700838 2.43753e-20)
(-0.0482729 -0.0746243 2.91239e-20)
(-0.0456364 -0.0735918 -3.09099e-20)
(-0.0361713 -0.06976 6.47772e-21)
(-0.0199069 -0.0647501 1.32692e-21)
(0.00410313 -0.0596732 3.88458e-20)
(0.0350378 -0.0544723 -4.14274e-20)
(0.0790975 -0.0515642 -2.21381e-20)
(0.120831 -0.0448754 -1.2462e-20)
(0.2065 -0.0460708 -1.25755e-20)
(0.234779 -0.0417156 -1.49892e-20)
(0.392916 -0.0425683 2.25761e-20)
(-0.0132369 -0.0264456 -1.21037e-21)
(-0.0309361 -0.0552631 -1.83045e-20)
(-0.0434804 -0.0691641 7.75641e-21)
(-0.0493559 -0.0737581 -1.0512e-22)
(-0.0494343 -0.0728972 9.94703e-21)
(-0.0435121 -0.0692878 3.57183e-23)
(-0.0316694 -0.0645029 9.08649e-21)
(-0.0131146 -0.059561 5.4689e-21)
(0.0112833 -0.0545105 3.78815e-20)
(0.046962 -0.0510276 3.81958e-20)
(0.0806041 -0.0452625 1.46149e-20)
(0.150884 -0.0434415 3.37193e-20)
(0.175759 -0.0415605 8.33978e-21)
(0.305192 -0.0369748 2.95524e-21)
(-0.0122345 -0.0259545 1.23977e-20)
(-0.0293672 -0.0541236 -1.69587e-21)
(-0.0426879 -0.0677223 -6.82256e-21)
(-0.0502456 -0.0722855 -7.73078e-21)
(-0.0528137 -0.071558 2.6099e-20)
(-0.0501013 -0.0681663 3.98205e-21)
(-0.0422115 -0.0636279 2.55207e-21)
(-0.0284802 -0.0588694 -2.9693e-20)
(-0.00979582 -0.0540486 1.43164e-20)
(0.0185534 -0.0502348 -1.32494e-20)
(0.0453162 -0.0451903 4.06163e-21)
(0.101882 -0.0415023 -3.43518e-20)
(0.123769 -0.0410293 7.27736e-21)
(0.227353 -0.0327671 6.37799e-21)
(-0.0112418 -0.0252944 2.73921e-21)
(-0.0278141 -0.0525987 -6.75596e-21)
(-0.0418682 -0.0657609 -1.9966e-20)
(-0.0509919 -0.0702178 2.92545e-20)
(-0.0558542 -0.0695902 -4.28715e-20)
(-0.0560647 -0.0664102 -1.34005e-20)
(-0.0517279 -0.0621312 -2.1107e-20)
(-0.0422983 -0.0575943 2.33974e-20)
(-0.0286397 -0.0530732 -2.46307e-20)
(-0.00665683 -0.049023 -2.79774e-20)
(0.0140853 -0.0446312 1.48888e-20)
(0.0588823 -0.0398887 7.02083e-21)
(0.0776493 -0.0399419 -6.0115e-21)
(0.15928 -0.0297176 -9.48932e-21)
(-0.0102639 -0.0244556 -2.83685e-20)
(-0.026292 -0.0506844 -1.42411e-20)
(-0.0410454 -0.0632878 6.00038e-21)
(-0.0516317 -0.0675731 -1.44047e-20)
(-0.0586133 -0.0670176 1.28909e-20)
(-0.0614931 -0.0640444 1.69149e-20)
(-0.0603655 -0.0600329 9.26676e-21)
(-0.0547969 -0.0557481 -5.57267e-21)
(-0.0455322 -0.0515335 -2.27662e-20)
(-0.0291388 -0.0473434 1.06378e-20)
(-0.0137692 -0.0436558 9.352e-21)
(0.0212308 -0.0381973 1.47123e-20)
(0.0365195 -0.0384531 2.75065e-21)
(0.100244 -0.0275269 -1.72472e-20)
(-0.0093075 -0.0234308 4.05406e-21)
(-0.0248156 -0.0483815 1.33429e-20)
(-0.0402382 -0.0603162 1.82088e-20)
(-0.0521912 -0.064375 -3.22034e-20)
(-0.0611305 -0.0638707 -2.72743e-20)
(-0.0664495 -0.0611014 -1.46876e-20)
(-0.068226 -0.0573637 -2.53344e-20)
(-0.0661178 -0.0533523 1.19103e-20)
(-0.0607092 -0.049417 3.08059e-20)
(-0.0493441 -0.0452858 1.63436e-20)
(-0.0386118 -0.0421733 -1.59346e-20)
(-0.0117494 -0.0361622 -1.80883e-20)