/*--------------------------------*- C++ -*----------------------------------*\
  =========                 |
  \\      /  F ield         | OpenFOAM: The Open Source CFD Toolbox
   \\    /   O peration     | Website:  https://openfoam.org
    \\  /    A nd           | Version:  7
     \\/     M anipulation  |
\*---------------------------------------------------------------------------*/
FoamFile
{
    version     2.0;
    format      ascii;
    class       volVectorField;
    location    "10";
    object      U;
}
// * * * * * * * * * * * * * * * * * * * * * * * * * * * * * * * * * * * * * //

dimensions      [0 1 -1 0 0 0 0];

internalField   nonuniform List<vector> 
6386
(
(-0.000759394 0.000599955 2.01172e-21)
(-0.00386044 0.00131334 7.84015e-21)
(-0.00937702 0.00167236 -3.07703e-21)
(-0.015605 0.00177149 2.27655e-21)
(-0.0218149 0.00168085 -1.73715e-20)
(-0.0274765 0.00146381 -7.74555e-21)
(-0.032225 0.00117811 -1.71291e-21)
(-0.035905 0.000876643 -2.56865e-20)
(-0.0385356 0.000601304 3.41792e-21)
(-0.040151 0.00039013 1.62707e-20)
(-0.00084305 0.00179366 -1.84085e-20)
(-0.00400045 0.00392681 -4.1879e-21)
(-0.00945519 0.00500171 1.31935e-20)
(-0.0155338 0.00529971 -5.18947e-20)
(-0.0215196 0.0050303 -6.75104e-21)
(-0.0268923 0.004383 1.03572e-20)
(-0.0312954 0.00353078 3.88216e-21)
(-0.0345834 0.00263242 7.13205e-20)
(-0.0367839 0.00181447 -5.25013e-20)
(-0.0378823 0.00119441 8.67547e-21)
(-0.00100705 0.00294783 3.54621e-20)
(-0.00427253 0.00644547 -5.37167e-21)
(-0.0096007 0.00820119 2.27178e-20)
(-0.015379 0.00867681 5.32398e-20)
(-0.0209154 0.00821804 1.13668e-19)
(-0.0257098 0.00713805 -8.53667e-20)
(-0.0294221 0.00572344 3.03553e-22)
(-0.0319264 0.00423835 -6.92543e-20)
(-0.0332678 0.00289565 9.00622e-20)
(-0.0333319 0.00190195 -8.62975e-20)
(-0.00124456 0.00403716 4.11247e-21)
(-0.00466026 0.00880847 -3.24102e-21)
(-0.00979109 0.0111874 2.55337e-20)
(-0.015114 0.0118057 -3.84426e-20)
(-0.0199738 0.0111403 -3.02726e-20)
(-0.0239001 0.00962382 1.5021e-19)
(-0.0265767 0.00765378 -4.77813e-20)
(-0.0279063 0.00559873 -1.40174e-19)
(-0.0279627 0.00376053 -4.70812e-20)
(-0.0264741 0.00245136 6.39096e-20)
(-0.00154556 0.00503789 6.91776e-21)
(-0.00513932 0.0109584 3.17581e-20)
(-0.00999287 0.0138815 -7.11842e-20)
(-0.0146997 0.0145949 8.75846e-20)
(-0.0186524 0.0136996 5.99515e-20)
(-0.0214194 0.0117419 -2.32156e-19)
(-0.0227158 0.00922626 2.02962e-19)
(-0.0224813 0.0066244 1.24882e-19)
(-0.0208319 0.00433097 4.36869e-20)
(-0.0172707 0.00279189 -1.40441e-20)
(-0.00189702 0.00592831 -5.01896e-20)
(-0.00567788 0.0128424 -2.45989e-20)
(-0.0101619 0.016211 2.23258e-20)
(-0.0140838 0.0169605 -1.94433e-19)
(-0.0168944 0.015807 9.85679e-20)
(-0.0182092 0.013403 -2.62253e-20)
(-0.0177812 0.0103549 1.56471e-21)
(-0.0155943 0.00723483 2.38356e-20)
(-0.0118224 0.00453442 -5.49172e-20)
(-0.00568021 0.00289799 -3.07957e-20)
(-0.00228318 0.00668916 1.11382e-19)
(-0.00623702 0.0144134 -1.38714e-20)
(-0.0102438 0.0181114 8.89475e-20)
(-0.0132015 0.0188281 3.13341e-20)
(-0.0146287 0.0173845 -2.79809e-20)
(-0.0141961 0.0145301 -2.35912e-20)
(-0.0117 0.0109665 -1.67475e-20)
(-0.00717433 0.00736111 -4.75773e-20)
(-0.000854852 0.00430042 2.55179e-20)
(0.00833735 0.00272872 2.02863e-19)
(-0.00268583 0.00730391 -1.19049e-19)
(-0.00677129 0.0156307 8.5085e-20)
(-0.0101743 0.0195272 -1.63946e-19)
(-0.0119757 0.0201346 1.98796e-20)
(-0.0117704 0.0183673 5.0717e-20)
(-0.00929116 0.0150611 1.90734e-19)
(-0.00438391 0.0110038 -9.13017e-20)
(0.00285893 0.00695195 1.56171e-19)
(0.0121516 0.00359367 -1.08061e-19)
(0.0248943 0.00223163 -1.39426e-19)
(-0.00308459 0.00775896 9.98366e-20)
(-0.00722914 0.0164607 -5.2258e-20)
(-0.00987995 0.0204131 -1.36421e-19)
(-0.0103174 0.0208299 1.2842e-20)
(-0.00822041 0.0187059 -2.52073e-19)
(-0.00339063 0.0149512 -1.52569e-20)
(0.00427217 0.010429 1.13358e-20)
(0.0146111 0.00597838 -7.83032e-20)
(0.0272811 0.00239903 1.86249e-19)
(0.0440772 0.00139364 7.4449e-20)
(-0.00345715 0.00804367 -7.86313e-20)
(-0.00755358 0.0168772 -1.33568e-19)
(-0.00927847 0.020735 3.52178e-19)
(-0.0081263 0.0208779 1.34515e-19)
(-0.00386646 0.0183677 4.49371e-20)
(0.00362447 0.0141754 1.01836e-19)
(0.0143885 0.00922656 -1.17093e-19)
(0.0282009 0.00443193 1.91473e-20)
(0.0446451 0.000702953 -3.04349e-19)
(0.0659924 0.000243068 2.86538e-20)
(-0.00377953 0.00815033 2.13079e-20)
(-0.00768263 0.0168617 6.45559e-20)
(-0.00827985 0.0204702 -4.65479e-19)
(-0.00529159 0.0202576 -6.7393e-20)
(0.00141635 0.0173386 6.91622e-20)
(0.0118871 0.0127303 -3.32515e-19)
(0.0261002 0.00740619 -1.12136e-20)
(0.0437599 0.00233253 -7.86481e-21)
(0.0643673 -0.00147532 -1.13906e-19)
(0.0907511 -0.00118946 1.64973e-20)
(-0.00402621 0.00807403 -2.27944e-20)
(-0.00755007 0.0164036 1.18942e-19)
(-0.00678703 0.0196081 3.10542e-19)
(-0.00169329 0.0189634 -1.56949e-19)
(0.00776433 0.0156234 1.20855e-20)
(0.0215434 0.0106361 -1.29515e-19)
(0.0395562 0.00500577 -3.32593e-20)
(0.0614328 -0.000266775 3.15556e-19)
(0.0865808 -0.00408024 2.58475e-19)
(0.118457 -0.00284016 -3.27481e-20)
(-0.00417022 0.0078128 2.26241e-20)
(-0.00708596 0.0155004 5.20877e-20)
(-0.00469737 0.0181501 -2.82013e-19)
(0.00279627 0.0170058 1.14323e-19)
(0.0153232 0.0132466 1.25385e-19)
(0.0327505 0.00793654 4.45619e-19)
(0.0549175 0.00209271 2.46271e-19)
(0.0813762 -0.00327691 -1.23826e-19)
(0.111435 -0.00701506 -3.26915e-20)
(0.149271 -0.00459965 -1.64866e-19)
(-0.00418366 0.0073674 1.66733e-19)
(-0.00621752 0.0141567 -2.67665e-19)
(-0.001904 0.0161097 4.21286e-19)
(0.00831008 0.0144108 -1.52169e-19)
(0.0242452 0.0102514 -1.57344e-19)
(0.0456736 0.00469847 -5.02269e-19)
(0.0723545 -0.00123637 -3.3538e-19)
(0.103755 -0.00657071 1.88828e-19)
(0.13908 -0.01014 2.82688e-19)
(0.1833 -0.00635443 2.90284e-19)
(-0.00403765 0.00674115 -1.48431e-19)
(-0.00487027 0.0123855 -6.95713e-20)
(0.00170214 0.0135127 1.01699e-20)
(0.0149835 0.0112196 1.89785e-20)
(0.0346854 0.00669882 4.09412e-19)
(0.0604816 0.00100925 1.55908e-20)
(0.0920426 -0.00485821 3.28528e-19)
(0.128742 -0.00998255 -2.99514e-19)
(0.169674 -0.0132592 -5.85565e-19)
(0.220639 -0.00792778 -2.80011e-19)
(-0.00296926 0.0102079 4.22937e-19)
(0.00622971 0.0103963 6.89973e-21)
(0.0229505 0.00748737 -2.41872e-19)
(0.0467965 0.00266486 1.54532e-19)
(0.077341 -0.0030276 -2.66047e-19)
(0.114156 -0.00862948 -5.65389e-20)
(0.15651 -0.0133145 1.39606e-19)
(0.203387 -0.0161186 1.79364e-19)
(0.261369 -0.00909742 1.4007e-19)
(-0.000440721 0.00765299 -2.12027e-19)
(0.011784 0.00680979 -2.01056e-19)
(0.0323386 0.00328273 -2.91951e-20)
(0.0607219 -0.0017619 1.48352e-19)
(0.096407 -0.00729857 5.05009e-19)
(0.138859 -0.0123979 4.20815e-19)
(0.187228 -0.0163491 6.37153e-20)
(0.240395 -0.0183956 5.24171e-19)
(0.305528 -0.00954881 2.32037e-19)
(0.00278599 0.00475882 3.90653e-19)
(0.0184632 0.00281424 1.00231e-19)
(0.0432639 -0.00131313 4.16472e-19)
(0.0765876 -0.00648327 -1.55312e-19)
(0.117813 -0.0116882 -4.99708e-19)
(0.166293 -0.0160202 -2.57559e-19)
(0.221053 -0.0188691 -2.96736e-19)
(0.280859 -0.0196348 -6.38346e-19)
(0.35298 -0.00866437 -7.17045e-20)
(0.0263551 -0.0015169 -2.76234e-19)
(0.0558241 -0.00620651 -1.84708e-19)
(0.0944925 -0.0113936 -7.40064e-20)
(0.141656 -0.0160892 -2.18374e-20)
(0.19657 -0.0193929 7.97731e-20)
(0.258162 -0.0207092 1.29181e-19)
(0.325039 -0.0192527 2.24218e-19)
(0.403327 -0.00555224 -3.64924e-19)
(0.0355329 -0.00609694 1.44486e-19)
(0.0700926 -0.0112898 2.43527e-19)
(0.114495 -0.0163791 -1.62803e-19)
(0.167972 -0.0204086 4.06044e-19)
(0.229726 -0.0224883 -1.43008e-19)
(0.298774 -0.0218952 -7.20438e-20)
(0.373825 -0.017145 1.07165e-20)
(0.457609 -0.000993682 1.08631e-19)
(0.0861132 -0.0164382 -1.81885e-19)
(0.136603 -0.0213101 1.50901e-19)
(0.196698 -0.0245526 -1.34974e-19)
(0.265599 -0.0253413 5.85103e-19)
(0.342683 -0.0228101 -1.55738e-19)
(0.428033 -0.0148601 3.31315e-19)
(0.52375 -6.20709e-06 -1.75659e-19)
(0.160769 -0.0260259 -3.27504e-19)
(0.227667 -0.0283773 -4.45119e-19)
(0.303749 -0.0279085 -4.47722e-19)
(0.388549 -0.0239545 6.1292e-20)
(0.482785 -0.0152099 2.37736e-19)
(0.585719 -0.00669262 -7.62566e-20)
(0.186914 -0.0303264 6.21454e-19)
(0.260669 -0.0316501 4.78173e-19)
(0.343722 -0.0298882 9.46977e-20)
(0.435445 -0.024733 -5.12356e-21)
(0.536288 -0.0157061 -5.8961e-20)
(0.642591 -0.0111158 9.34364e-19)
(0.295502 -0.0340848 -5.52406e-19)
(0.385174 -0.0308721 2.36424e-19)
(0.482947 -0.024387 1.10231e-19)
(0.588562 -0.0146859 -7.89525e-19)
(0.696461 -0.0113615 -1.40652e-19)
(0.427839 -0.0304846 -2.45273e-19)
(0.530839 -0.0223886 2.69764e-19)
(0.639901 -0.011513 1.87176e-20)
(0.748507 -0.00777293 -1.49984e-19)
(0.578923 -0.018395 9.50459e-20)
(0.690388 -0.00590168 8.33098e-20)
(0.798967 -0.000665073 -7.93755e-20)
(0.739911 0.00225344 1.36095e-19)
(0.847731 0.00964061 4.10458e-19)
(0.894552 0.0227771 -1.59546e-19)
(0.788593 -0.0129753 -9.52912e-20)
(0.894929 -0.0228396 -6.38873e-19)
(0.740239 -0.00229344 -9.81165e-20)
(0.848087 -0.00969026 6.36802e-19)
(0.579182 0.0183767 -4.62615e-19)
(0.69069 0.00587118 3.83192e-19)
(0.799301 0.000626698 -1.61939e-19)
(0.428025 0.03048 -6.85783e-20)
(0.531071 0.0223763 8.05271e-20)
(0.640177 0.0114904 -6.26026e-20)
(0.748818 0.00774396 -3.81353e-20)
(0.295623 0.0340863 -1.6955e-19)
(0.385337 0.03087 2.51828e-19)
(0.483154 0.024379 3.22492e-19)
(0.588813 0.0146693 -7.09882e-19)
(0.696748 0.0113396 -2.78279e-19)
(0.186982 0.0303284 -1.64359e-19)
(0.260772 0.0316515 6.40042e-19)
(0.343864 0.0298874 -7.60795e-20)
(0.435628 0.0247278 6.3026e-21)
(0.536513 0.0156936 2.8908e-19)
(0.642854 0.0110983 4.74279e-19)
(0.160825 0.0260263 -4.77979e-19)
(0.227753 0.0283779 -2.74642e-19)
(0.303871 0.0279079 -5.1631e-19)
(0.388709 0.0239508 -1.394e-19)
(0.482985 0.0151998 3.00551e-19)
(0.585956 0.00667605 -6.07653e-20)
(0.0861363 0.0164351 6.65604e-20)
(0.136647 0.0213083 -4.37818e-20)
(0.19677 0.0245517 7.26715e-20)
(0.265703 0.02534 6.5173e-19)
(0.342822 0.0228066 -8.13651e-20)
(0.428208 0.014851 -1.21335e-20)
(0.523961 -1.26263e-05 -1.60136e-19)
(0.0355367 0.00609065 2.39507e-19)
(0.0701091 0.0112843 -9.48485e-20)
(0.11453 0.016375 7.01312e-20)
(0.168031 0.0204056 4.1787e-19)
(0.229813 0.0224855 -4.07565e-19)
(0.298892 0.0218911 3.0152e-19)
(0.373977 0.0171367 -3.17663e-19)
(0.457793 0.000973483 1.24394e-19)
(0.0263558 0.00150858 -4.06672e-19)
(0.055835 0.00619855 -1.99802e-19)
(0.0945191 0.0113868 1.49113e-20)
(0.141703 0.0160837 -4.23468e-20)
(0.196641 0.0193881 1.82772e-19)
(0.258262 0.0207037 -6.19538e-20)
(0.325168 0.0192443 2.88148e-19)
(0.403488 0.00553273 -3.53286e-19)
(0.0027808 -0.00476719 -1.2562e-19)
(0.0184613 -0.00282451 4.39967e-19)
(0.0432702 0.0013027 1.9682e-19)
(0.0766071 0.00647372 6.45217e-20)
(0.11785 0.0116799 -5.36599e-19)
(0.166352 0.0160128 -4.16899e-19)
(0.221137 0.0188616 -2.8573e-19)
(0.280969 0.0196252 -5.68119e-19)
(0.35312 0.00864526 -2.74768e-19)
(-0.000446625 -0.00766252 -3.10535e-19)
(0.0117801 -0.00682194 -1.01897e-19)
(0.0323412 -0.00329563 4.60879e-20)
(0.0607354 0.00174949 -3.97827e-20)
(0.0964356 0.00728722 6.70524e-19)
(0.138907 0.0123875 3.49614e-19)
(0.187298 0.0163388 1.84661e-19)
(0.240489 0.0183837 3.48645e-19)
(0.305648 0.00952894 1.10141e-19)
(-0.0037061 -0.00594508 -5.61042e-20)
(-0.00297562 -0.0102185 3.98144e-19)
(0.00622432 -0.0104103 -2.66052e-20)
(0.02295 -0.00750268 -1.66393e-19)
(0.046805 -0.00268017 8.36771e-20)
(0.0773623 0.00301305 -1.08157e-19)
(0.114194 0.00861579 -2.83767e-19)
(0.156567 0.013301 1.14002e-19)
(0.203465 0.0161038 3.52923e-19)
(0.261471 0.00907587 1.41337e-20)
(-0.00404092 -0.00674624 -7.12668e-20)
(-0.00487688 -0.0123971 -1.3548e-19)
(0.00169569 -0.0135283 -1.41004e-19)
(0.0149808 -0.0112373 8.38324e-20)
(0.0346899 -0.00671701 2.99395e-19)
(0.0604969 -0.00102707 3.16491e-19)
(0.0920719 0.00484102 1.12569e-19)
(0.128788 0.00996553 -3.79684e-19)
(0.169739 0.013241 -3.24545e-19)
(0.220725 0.0079039 -3.45164e-19)
(-0.00418682 -0.00737275 2.02926e-19)
(-0.0062242 -0.0141692 -2.78419e-19)
(-0.00191115 -0.016127 1.90602e-19)
(0.0083056 -0.0144308 1.74275e-19)
(0.0242466 -0.0102724 -4.02034e-19)
(0.045684 -0.00471958 -3.59027e-19)
(0.0723769 0.00121559 -4.41619e-19)
(0.103792 0.00654996 1.68186e-19)
(0.139133 0.0101182 1.77181e-19)
(0.183372 0.00632772 4.90165e-19)
(-0.00417323 -0.00781838 -1.44741e-19)
(-0.00709256 -0.0155137 6.742e-20)
(-0.00470491 -0.0181688 -2.17794e-19)
(0.00279057 -0.0170279 1.81613e-19)
(0.0153222 -0.0132703 2.79311e-20)
(0.032757 -0.00796088 5.52663e-19)
(0.0549342 -0.00211709 2.65296e-19)
(0.0814053 0.00325236 -1.43102e-19)
(0.111478 0.00698944 -5.94846e-20)
(0.149331 0.00457002 6.47619e-21)
(-0.00402904 -0.00807982 -6.29636e-20)
(-0.00755647 -0.0164178 1.70634e-19)
(-0.0067947 -0.0196282 2.25046e-19)
(-0.00169978 -0.0189875 -2.59262e-20)
(0.00776155 -0.0156498 -2.37757e-19)
(0.0215469 -0.0106636 -3.09363e-21)
(0.0395682 -0.0050337 8.10604e-20)
(0.0614555 0.000238431 1.65451e-19)
(0.0866157 0.00405085 3.15595e-19)
(0.118506 0.00280804 -8.89408e-21)
(-0.00378217 -0.00815632 -2.22782e-20)
(-0.00768873 -0.0168765 1.1325e-20)
(-0.00828742 -0.0204916 -3.46154e-19)
(-0.0052985 -0.0202836 -1.40377e-19)
(0.00141234 -0.0173674 5.3539e-20)
(0.0118882 -0.0127608 -3.52227e-19)
(0.0261086 -0.00743755 1.76216e-19)
(0.0437774 -0.00236461 -2.40227e-19)
(0.0643955 0.00144199 -1.09848e-19)
(0.0907928 0.00115302 1.72701e-19)
(-0.00345957 -0.00804983 -5.84987e-20)
(-0.0075593 -0.0168927 -1.02826e-19)
(-0.00928576 -0.0207576 3.62508e-19)
(-0.00813331 -0.0209056 5.59402e-20)
(-0.00387124 -0.0183988 2.55989e-19)
(0.00362387 -0.0142087 -2.98845e-20)
(0.014394 -0.00926116 -5.67034e-20)
(0.0282141 -0.00446759 -7.35653e-20)
(0.0446674 -0.000740034 -2.9306e-19)
(0.0660256 -0.00028324 -6.67546e-20)
(-0.00308679 -0.00776529 7.47878e-20)
(-0.00723441 -0.0164768 -1.13917e-19)
(-0.0098868 -0.0204368 -1.75299e-20)
(-0.0103243 -0.0208592 -3.55124e-20)
(-0.00822558 -0.0187391 -2.41288e-19)
(-0.0033924 -0.0149871 -4.28039e-22)
(0.00427546 -0.0104666 -7.31169e-20)
(0.0146209 -0.00601734 4.00099e-20)
(0.0272985 -0.00243956 1.80974e-19)
(0.0441036 -0.00143673 5.36e-20)
(-0.0026878 -0.0073104 -1.35792e-19)
(-0.00677605 -0.0156474 1.22053e-19)
(-0.0101807 -0.0195519 -1.59031e-19)
(-0.0119822 -0.0201654 8.12855e-21)
(-0.0117756 -0.0184025 1.01391e-20)
(-0.00929364 -0.0150993 2.29698e-19)
(-0.00438223 -0.0110441 -4.78904e-20)
(0.00286599 -0.00699389 -1.28399e-20)
(0.012165 -0.00363728 6.5916e-20)
(0.0249152 -0.00227739 -3.0611e-19)
(-0.0022849 -0.00669578 1.44287e-19)
(-0.00624124 -0.0144305 -8.80572e-20)
(-0.0102495 -0.018137 9.3974e-20)
(-0.0132075 -0.0188601 5.45732e-20)
(-0.0146337 -0.0174213 2.26503e-20)
(-0.0141989 -0.0145704 -5.52937e-20)
(-0.0116995 -0.0110092 -7.63857e-20)
(-0.00716937 -0.00740567 -8.47838e-20)
(-0.000844589 -0.00434668 1.55934e-19)
(0.00835366 -0.00277699 1.1373e-19)
(-0.00189849 -0.00593506 -3.74369e-20)
(-0.00568151 -0.0128599 2.14611e-20)
(-0.0101668 -0.0162373 1.28117e-20)
(-0.0140891 -0.0169936 -1.75533e-19)
(-0.0168989 -0.0158452 3.67789e-20)
(-0.0182121 -0.013445 3.73678e-20)
(-0.0177814 -0.0103997 -8.06167e-20)
(-0.0155909 -0.00728168 4.40128e-20)
(-0.0118147 -0.00458297 -3.56482e-20)
(-0.00566734 -0.00294844 -7.45359e-20)
(-0.00154678 -0.00504475 -3.00472e-20)
(-0.00514233 -0.0109763 1.25836e-20)
(-0.00999697 -0.0139084 -2.81532e-20)
(-0.0147041 -0.0146289 9.54266e-20)
(-0.0186564 -0.0137391 -2.14754e-20)
(-0.021422 -0.0117854 -1.59348e-19)
(-0.0227163 -0.00927281 1.04392e-19)
(-0.022479 -0.00667319 1.84618e-19)
(-0.0208262 -0.00438155 6.09527e-20)
(-0.0172609 -0.00284415 -1.84545e-21)
(-0.00124551 -0.00404411 -8.68561e-21)
(-0.00466263 -0.00882663 3.45668e-20)
(-0.00979432 -0.0112148 -7.20185e-20)
(-0.0151176 -0.0118405 2.80834e-20)
(-0.019977 -0.0111808 -4.87245e-20)
(-0.0239023 -0.00966861 1.28694e-19)
(-0.0265773 -0.00770175 -7.09552e-20)
(-0.0279048 -0.00564909 -6.61739e-20)
(-0.0279587 -0.00381277 -1.08042e-19)
(-0.026467 -0.00250522 1.01403e-19)
(-0.00100773 -0.00295485 3.28938e-20)
(-0.00427424 -0.00646385 -1.77005e-20)
(-0.00960304 -0.00822899 3.25467e-20)
(-0.0153815 -0.00871215 4.63682e-20)
(-0.0209178 -0.00825928 1.08748e-19)
(-0.0257115 -0.00718375 -8.48419e-20)
(-0.0294227 -0.00577248 2.29728e-20)
(-0.0319255 -0.00428989 -7.47562e-20)
(-0.0332651 -0.00294915 7.22754e-20)
(-0.033327 -0.00195705 -6.63453e-20)
(-0.000843462 -0.00180072 -1.08016e-20)
(-0.00400147 -0.00394533 4.13485e-21)
(-0.0094566 -0.00502976 5.04957e-21)
(-0.0155354 -0.00533543 -3.88021e-20)
(-0.0215211 -0.00507204 -2.19037e-20)
(-0.0268933 -0.00442932 2.37192e-20)
(-0.0312958 -0.00358054 3.89186e-21)
(-0.034583 -0.00268476 7.85251e-20)
(-0.0367824 -0.0018688 -6.18346e-20)
(-0.0378795 -0.00125035 -2.03762e-20)
(-0.000759532 -0.000607036 -1.82242e-21)
(-0.00386078 -0.00133194 6.43561e-21)
(-0.00937749 -0.00170054 -4.2465e-21)
(-0.0156055 -0.00180741 3.45717e-21)
(-0.0218154 -0.00172284 -1.72426e-20)
(-0.0274768 -0.00151043 -4.33163e-21)
(-0.0322251 -0.00122822 -5.83507e-21)
(-0.0359049 -0.000929377 -1.91545e-20)
(-0.0385351 -0.000656056 -1.4217e-21)
(-0.04015 -0.000446502 2.14285e-20)
(-0.0413749 0.000360421 -9.40806e-22)
(-0.0423406 0.000168823 3.88429e-21)
(-0.0425897 -0.000106692 6.63691e-23)
(-0.0419152 -0.000424526 -3.83164e-21)
(-0.0401836 -0.000763603 4.38967e-21)
(-0.0372703 -0.0011045 -2.07272e-22)
(-0.0331143 -0.00143229 -7.27902e-22)
(-0.0276971 -0.00173653 -7.40018e-22)
(-0.0210322 -0.00201032 6.29515e-22)
(-0.0131589 -0.00224996 1.29195e-21)
(-0.00413335 -0.00245419 -1.384e-21)
(0.00597676 -0.00262353 -3.63976e-22)
(0.0170982 -0.00275984 3.65938e-22)
(0.0291559 -0.0028657 2.01411e-22)
(0.0420762 -0.00294408 -2.78766e-22)
(0.0557882 -0.00299807 6.72543e-24)
(0.0702254 -0.00303074 -9.24681e-22)
(0.0853261 -0.00304496 4.36175e-22)
(0.101034 -0.00304344 3.50257e-22)
(0.117298 -0.00302863 -5.27528e-22)
(0.134071 -0.00300277 7.78228e-22)
(0.151315 -0.00296789 -6.07321e-23)
(0.168992 -0.00292582 -9.74916e-22)
(0.187072 -0.00287822 5.95024e-22)
(0.205531 -0.00282659 2.64194e-22)
(0.224348 -0.00277229 -4.579e-22)
(0.243507 -0.00271656 1.43012e-22)
(0.263002 -0.00266046 2.2914e-22)
(0.28282 -0.00260506 4.94735e-24)
(0.302981 -0.00255101 -1.4198e-22)
(0.32345 -0.00249945 1.47823e-22)
(0.344323 -0.00245008 2.33148e-22)
(0.365446 -0.00240526 -1.32743e-23)
(0.387182 -0.0023612 -1.30136e-22)
(0.40888 -0.00232662 3.77596e-23)
(0.431887 -0.00228421 4.98139e-23)
(0.453733 -0.0022686 -3.67236e-23)
(0.479133 -0.00221235 2.92483e-23)
(0.499558 -0.00224439 -4.87001e-23)
(0.530559 -0.00212715 2.51908e-23)
(0.544698 -0.00228357 -2.08451e-23)
(0.590019 -0.0020579 2.52981e-23)
(-0.0388541 0.00111231 -2.82356e-20)
(-0.03975 0.00053471 1.20456e-20)
(-0.0398823 -0.000291295 2.77056e-21)
(-0.0390803 -0.00124159 1.0195e-20)
(-0.0372264 -0.00225572 -6.03189e-21)
(-0.0342 -0.00327531 7.606e-22)
(-0.0299444 -0.00425571 -5.95151e-21)
(-0.024445 -0.00516594 -1.50452e-21)
(-0.0177172 -0.00598553 -1.2118e-21)
(-0.00980083 -0.00670364 -1.49742e-21)
(-0.00075201 -0.00731661 1.17777e-20)
(0.00936289 -0.00782613 -1.47814e-20)
(0.0204722 -0.0082378 2.74195e-21)
(0.0325031 -0.00855929 8.94251e-21)
(0.0453836 -0.00879947 -7.41004e-21)
(0.059045 -0.0089675 1.61962e-22)
(0.0734226 -0.00907243 5.6269e-21)
(0.0884565 -0.00912278 9.56021e-22)
(0.104092 -0.00912646 -4.04237e-21)
(0.120278 -0.00909068 -5.12345e-22)
(0.136971 -0.00902196 2.50156e-21)
(0.154131 -0.00892619 -4.08983e-22)
(0.171722 -0.00880865 3.74479e-22)
(0.189716 -0.00867408 2.87128e-23)
(0.208088 -0.00852676 -1.08505e-21)
(0.226817 -0.00837051 5.0298e-23)
(0.245888 -0.00820879 3.49115e-23)
(0.265296 -0.0080446 6.21948e-22)
(0.285027 -0.00788084 -1.8975e-22)
(0.3051 -0.00771937 5.08502e-22)
(0.325484 -0.00756339 7.51528e-23)
(0.34627 -0.0074119 -4.70321e-23)
(0.367307 -0.00727201 2.78261e-23)
(0.388959 -0.00713236 2.3024e-22)
(0.410572 -0.00701928 -1.68589e-22)
(0.433493 -0.00688102 2.12784e-23)
(0.455257 -0.00682189 -5.74176e-23)
(0.480568 -0.00663987 -5.92627e-23)
(0.500916 -0.00672243 3.03116e-23)
(0.531818 -0.00635727 1.32679e-23)
(0.545896 -0.00681348 4.33274e-23)
(0.59108 -0.00612509 -2.63999e-23)
(-0.0338033 0.00178592 2.00002e-20)
(-0.0345612 0.00081112 -3.56644e-20)
(-0.0344609 -0.000561567 2.22769e-20)
(-0.0334059 -0.00213548 4.70452e-21)
(-0.0313097 -0.00381387 3.52785e-21)
(-0.0280591 -0.00549936 -1.61167e-20)
(-0.023607 -0.00711838 9.50307e-21)
(-0.0179457 -0.00862034 -1.31539e-20)
(-0.0110947 -0.00997184 3.09858e-20)
(-0.00309513 -0.0111556 -2.0443e-20)
(0.00599789 -0.0121659 1.00688e-20)
(0.0161203 -0.013006 -2.63133e-21)
(0.0272037 -0.0136851 2.00565e-21)
(0.0391793 -0.0142161 -2.43014e-21)
(0.0519793 -0.0146134 -7.21087e-21)
(0.0655388 -0.0148922 3.59814e-21)
(0.0797969 -0.0150673 -4.71623e-21)
(0.0946968 -0.0151525 2.41942e-21)
(0.110186 -0.015161 -1.12231e-21)
(0.126218 -0.0151044 -8.68375e-22)
(0.14275 -0.0149934 2.39291e-21)
(0.159743 -0.0148377 3.7706e-22)
(0.177165 -0.0146459 -9.9689e-23)
(0.194986 -0.0144258 -1.31539e-21)
(0.213183 -0.0141843 2.73428e-21)
(0.231738 -0.0139277 -6.37178e-22)
(0.250634 -0.0136616 -3.59344e-22)
(0.269867 -0.0133909 6.2806e-22)
(0.289424 -0.0131204 -1.07322e-21)
(0.309324 -0.012853 -6.15131e-22)
(0.329535 -0.0125941 9.62106e-22)
(0.350151 -0.0123419 -9.59531e-22)
(0.371017 -0.0121083 2.51661e-23)
(0.392499 -0.0118744 1.26081e-22)
(0.413944 -0.0116841 3.31653e-22)
(0.436694 -0.0114511 9.86968e-23)
(0.458293 -0.0113497 1.38349e-22)
(0.483428 -0.0110428 8.69777e-23)
(0.503621 -0.011177 -8.81186e-24)
(0.534326 -0.0105651 -9.2278e-23)
(0.548284 -0.0113205 2.32739e-23)
(0.593194 -0.0101742 -2.68463e-22)
(-0.0262061 0.00233552 1.3337e-21)
(-0.0267616 0.000941679 -1.35157e-20)
(-0.0263152 -0.000972108 2.5093e-20)
(-0.0248859 -0.00315494 -6.56934e-21)
(-0.0224322 -0.00547973 -1.30488e-20)
(-0.0188515 -0.00780981 2.8457e-20)
(-0.0141117 -0.0100442 -1.29125e-20)
(-0.00821513 -0.0121141 -2.34076e-20)
(-0.00118674 -0.0139746 6.42686e-21)
(0.00693054 -0.0156028 1.26182e-21)
(0.0160832 -0.0169917 -4.39894e-21)
(0.0262108 -0.0181466 1.4922e-20)
(0.0372505 -0.0190804 3.59545e-21)
(0.0491392 -0.0198108 -5.22669e-21)
(0.0618152 -0.0203578 -1.67981e-22)
(0.0752196 -0.0207421 -6.30232e-21)
(0.0892968 -0.0209839 1.26208e-20)
(0.103995 -0.0211022 -5.84007e-21)
(0.119266 -0.0211147 -6.26272e-21)
(0.135066 -0.0210377 4.16723e-21)
(0.151356 -0.0208856 2.41533e-21)
(0.168101 -0.0206716 -6.37525e-22)
(0.185268 -0.0204076 2.83104e-21)
(0.202832 -0.0201042 -2.63782e-21)
(0.22077 -0.019771 -3.45307e-22)
(0.239064 -0.0194167 -9.00837e-22)
(0.2577 -0.0190489 3.71308e-21)
(0.276672 -0.0186744 -2.26979e-21)
(0.29597 -0.0182997 -9.67702e-22)
(0.315613 -0.017929 1.22905e-21)
(0.335568 -0.0175697 -7.24726e-22)
(0.355928 -0.0172191 3.79991e-22)
(0.376541 -0.0168942 -1.70282e-22)
(0.397769 -0.016568 9.10634e-22)
(0.418964 -0.0163027 -7.76863e-22)
(0.44146 -0.0159768 1.16418e-22)
(0.462814 -0.0158351 -3.41325e-22)
(0.487687 -0.015405 -1.29087e-22)
(0.507651 -0.0155926 -1.27136e-22)
(0.538062 -0.0147358 6.29161e-23)
(0.551843 -0.0157895 4.00579e-23)
(0.596345 -0.0141932 2.37517e-22)
(-0.0160368 0.00271422 8.90204e-21)
(-0.0163329 0.000873917 3.23751e-20)
(-0.0154283 -0.00157218 -1.28157e-20)
(-0.0135096 -0.00434443 -5.04988e-20)
(-0.0105906 -0.00729086 6.00351e-20)
(-0.00658215 -0.010236 -3.54976e-21)
(-0.00147205 -0.0130535 -1.78578e-20)
(0.00472406 -0.015658 1.56899e-20)
(0.0119746 -0.0179957 -1.80519e-20)
(0.020235 -0.0200391 1.52017e-20)
(0.0294543 -0.0217813 -4.48762e-22)
(0.0395778 -0.0232295 -1.17553e-20)
(0.0505497 -0.0244006 -3.77234e-21)
(0.0623149 -0.0253169 4.9531e-21)
(0.0748198 -0.0260036 1.39641e-20)
(0.0880131 -0.0264864 -2.52726e-21)
(0.101846 -0.0267905 -1.60039e-20)
(0.116274 -0.0269395 1.03583e-20)
(0.131253 -0.0269555 -9.73498e-21)
(0.146745 -0.0268586 3.11966e-21)
(0.162714 -0.026667 -2.3741e-21)
(0.179128 -0.0263971 3.17606e-21)
(0.195959 -0.0260639 3.69861e-21)
(0.213182 -0.0256806 2.66221e-21)
(0.230776 -0.0252593 -5.26239e-21)
(0.248726 -0.0248109 -3.88599e-22)
(0.267018 -0.0243452 1.81106e-21)
(0.285647 -0.0238705 1.27952e-21)
(0.304604 -0.0233954 -3.08448e-21)
(0.323906 -0.022925 -8.02333e-22)
(0.343524 -0.0224686 -4.55194e-22)
(0.363548 -0.0220231 5.02522e-22)
(0.383828 -0.02161 -1.93143e-22)
(0.404722 -0.0211945 -7.40349e-22)
(0.425588 -0.0208571 -2.74515e-22)
(0.44775 -0.0204408 1.13466e-22)
(0.468783 -0.0202618 -1.94574e-22)
(0.493309 -0.0197106 8.24407e-23)
(0.512972 -0.0199542 5.69538e-24)
(0.542997 -0.0188552 -9.67968e-23)
(0.556545 -0.0202058 -2.01698e-22)
(0.600509 -0.0181703 1.43165e-22)
(-0.00326185 0.00284822 9.41388e-21)
(-0.00324254 0.000584255 -9.82008e-20)
(-0.00177462 -0.002397 4.20835e-20)
(0.000739299 -0.00574183 -1.74356e-21)
(0.00422168 -0.00927831 3.7231e-20)
(0.00874463 -0.0128016 -1.64828e-20)
(0.0142956 -0.016161 1.24282e-21)
(0.0208426 -0.0192579 -3.09721e-20)
(0.0283471 -0.0220325 3.54802e-20)
(0.0367638 -0.0244547 -1.83768e-21)
(0.046046 -0.0265182 -1.28205e-20)
(0.0561464 -0.0282331 -6.53967e-21)
(0.0670185 -0.0296202 7.88887e-21)
(0.0786172 -0.0307061 4.56636e-21)
(0.0908988 -0.0315205 1.34071e-20)
(0.103821 -0.0320937 -2.04362e-20)
(0.117345 -0.0324549 -2.67534e-21)
(0.131431 -0.0326322 2.18866e-21)
(0.146045 -0.0326512 -2.27659e-21)
(0.161152 -0.0325356 4.88742e-21)
(0.176721 -0.0323068 3.65367e-21)
(0.192725 -0.0319843 2.85907e-22)
(0.209139 -0.0315857 -9.46087e-21)
(0.22594 -0.0311269 1.57462e-21)
(0.24311 -0.0306222 5.53216e-21)
(0.260635 -0.0300845 -2.91735e-21)
(0.278502 -0.0295256 -1.78541e-21)
(0.296709 -0.0289557 3.76005e-21)
(0.315245 -0.0283848 -3.15437e-21)
(0.334129 -0.0278191 3.73464e-21)
(0.35333 -0.0272702 1.40843e-21)
(0.372941 -0.0267338 -1.05015e-21)
(0.392811 -0.0262366 -2.22223e-23)
(0.413296 -0.0257356 -1.9954e-22)
(0.433757 -0.02533 -8.82957e-23)
(0.455508 -0.0248266 6.98786e-22)
(0.476146 -0.0246139 4.00919e-22)
(0.500248 -0.0239444 -1.92716e-22)
(0.519543 -0.024247 3.35598e-22)
(0.549092 -0.0229092 1.34862e-22)
(0.562356 -0.0245551 -1.37652e-22)
(0.605657 -0.0220939 -2.82946e-22)
(0.0121722 0.00274196 2.4675e-20)
(0.0125809 8.20147e-05 -3.55896e-20)
(0.0146683 -0.00347681 -3.24724e-20)
(0.0178814 -0.00737783 -5.53471e-21)
(0.0220164 -0.0114682 6.03274e-20)
(0.0271258 -0.0155241 -8.48314e-20)
(0.0331725 -0.0193747 4.35974e-20)
(0.0401052 -0.0229136 2.30118e-20)
(0.047879 -0.0260767 5.11989e-21)
(0.0564498 -0.0288341 -2.66079e-20)
(0.0657772 -0.0311816 2.17936e-20)
(0.0758237 -0.0331326 -1.63507e-20)
(0.0865543 -0.0347113 3.64673e-21)
(0.0979358 -0.0359483 5.60123e-21)
(0.109936 -0.0368771 1.69051e-21)
(0.122524 -0.0375316 -2.95855e-20)
(0.13567 -0.0379448 1.45767e-20)
(0.149344 -0.038148 7.51555e-21)
(0.163517 -0.03817 -1.34434e-20)
(0.178163 -0.0380375 6.98645e-21)
(0.193256 -0.0377747 7.9219e-21)
(0.208772 -0.0374039 1.94656e-21)
(0.22469 -0.0369448 -7.70427e-22)
(0.240991 -0.0364159 2.9353e-22)
(0.257659 -0.0358334 9.31269e-22)
(0.274682 -0.0352123 3.77723e-22)
(0.292048 -0.0345663 1.23138e-21)
(0.309755 -0.0339069 -3.19305e-21)
(0.327795 -0.0332459 6.85332e-23)
(0.346186 -0.0325906 -1.72745e-21)
(0.364899 -0.0319545 2.08205e-21)
(0.384023 -0.0313323 -1.94665e-22)
(0.403411 -0.0307559 -9.53984e-22)
(0.423414 -0.030174 -1.37687e-21)
(0.4434 -0.0297047 1.15646e-21)
(0.464668 -0.0291181 -5.27679e-22)
(0.484843 -0.028876 7.15275e-22)
(0.508446 -0.0280916 -7.47473e-23)
(0.527308 -0.0284569 -1.00633e-22)
(0.556297 -0.0268847 1.69273e-23)
(0.56923 -0.0288237 3.0773e-22)
(0.61175 -0.0259529 4.73336e-22)
(0.0303467 0.00240514 -9.27652e-20)
(0.0311778 -0.00077523 7.97756e-21)
(0.033925 -0.00487412 1.18886e-20)
(0.0379459 -0.00928058 3.67732e-20)
(0.0428114 -0.0138796 -5.52026e-20)
(0.0485623 -0.0184127 -1.28331e-20)
(0.0551388 -0.0226948 2.69808e-20)
(0.0624708 -0.0266161 -7.42317e-21)
(0.0705089 -0.0301124 -1.50276e-20)
(0.0792129 -0.0331559 1.4812e-20)
(0.0885513 -0.0357458 3.88324e-21)
(0.0984993 -0.0378988 -1.30776e-20)
(0.109035 -0.0396427 1.52765e-20)
(0.12014 -0.041011 -9.30644e-21)
(0.131795 -0.0420403 1.03351e-21)
(0.143981 -0.0427672 2.75015e-20)
(0.156678 -0.0432273 -1.94881e-20)
(0.169866 -0.0434546 5.94021e-21)
(0.183525 -0.0434803 -5.63015e-21)
(0.197634 -0.0433337 5.36352e-21)
(0.212175 -0.0430412 -2.19579e-20)
(0.227127 -0.0426273 1.02294e-20)
(0.242474 -0.0421139 7.13674e-21)
(0.258201 -0.0415214 -1.92679e-21)
(0.274292 -0.040868 3.17404e-22)
(0.290739 -0.0401705 -4.05869e-22)
(0.307531 -0.0394442 -4.33233e-21)
(0.324668 -0.0387022 -5.52191e-22)
(0.342141 -0.037958 6.86716e-22)
(0.35997 -0.0372194 6.691e-22)
(0.378125 -0.0365024 6.0904e-22)
(0.396695 -0.0358003 1.03386e-21)
(0.415533 -0.0351506 -2.20605e-22)
(0.434988 -0.0344929 1.47987e-21)
(0.454434 -0.0339653 -1.97527e-22)
(0.475153 -0.0333002 -9.15829e-22)
(0.494801 -0.0330336 2.08382e-22)
(0.517835 -0.0321383 -2.38976e-22)
(0.536209 -0.0325707 -4.59864e-22)
(0.564557 -0.0307688 -2.27095e-24)
(0.577118 -0.0329986 4.37115e-23)
(0.618745 -0.0297362 2.42294e-22)
(0.051278 0.00179864 1.15603e-20)
(0.0526066 -0.00199576 -5.0751e-20)
(0.0561165 -0.00658774 2.88069e-20)
(0.060993 -0.0114617 3.2181e-21)
(0.066636 -0.0165185 -9.99649e-21)
(0.0730591 -0.0214654 7.49251e-20)
(0.0801736 -0.0261106 8.40909e-21)
(0.0878925 -0.0303473 -3.73254e-20)
(0.0961652 -0.0341151 -2.75805e-20)
(0.104959 -0.0373912 3.56471e-20)
(0.114256 -0.0401789 -2.80215e-20)
(0.124045 -0.0424983 2.32843e-20)
(0.134322 -0.04438 -2.51057e-20)
(0.145081 -0.0458597 -9.82771e-22)
(0.156319 -0.0469757 1.57787e-21)
(0.16803 -0.0477665 4.44231e-20)
(0.180204 -0.0482694 -7.47699e-21)
(0.192832 -0.04852 4.08313e-21)
(0.205903 -0.0485515 -9.40607e-22)
(0.219402 -0.0483946 -4.2157e-21)
(0.233316 -0.0480778 -8.18765e-22)
(0.247632 -0.0476272 -6.0676e-21)
(0.262337 -0.0470668 1.35327e-20)
(0.277417 -0.0464184 2.58272e-21)
(0.292862 -0.0457022 -6.22271e-21)
(0.308664 -0.0449364 3.268e-21)
(0.324815 -0.0441379 -5.11019e-21)
(0.341315 -0.0433212 4.12529e-21)
(0.358156 -0.0425014 -1.45094e-21)
(0.375359 -0.041687 1.10403e-21)
(0.392892 -0.0408962 -8.57951e-22)
(0.410846 -0.0401209 -5.89145e-22)
(0.429074 -0.0394044 2.12469e-21)
(0.44792 -0.038677 -3.32156e-22)
(0.466766 -0.0380971 4.39147e-22)