/*--------------------------------*- C++ -*----------------------------------*\
  =========                 |
  \\      /  F ield         | OpenFOAM: The Open Source CFD Toolbox
   \\    /   O peration     | Website:  https://openfoam.org
    \\  /    A nd           | Version:  7
     \\/     M anipulation  |
\*---------------------------------------------------------------------------*/
FoamFile
{
    version     2.0;
    format      ascii;
    class       volScalarField;
    location    "25";
    object      p;
}
// * * * * * * * * * * * * * * * * * * * * * * * * * * * * * * * * * * * * * //

dimensions      [0 2 -2 0 0 0 0];

internalField   nonuniform List<scalar> 
16660
(
0.0422368
0.0389319
0.0382019
0.0368938
0.0358388
0.0346755
0.0335345
0.0324252
0.0313863
0.0304792
0.0296568
0.029114
0.0283931
0.0284389
0.0421082
0.0388287
0.0381044
0.0368046
0.035755
0.0345964
0.0334591
0.0323531
0.0313159
0.0304144
0.0295893
0.0290709
0.028327
0.0284859
0.041854
0.038625
0.0379122
0.0366295
0.0355909
0.0344422
0.0333124
0.0322136
0.0311801
0.0302904
0.0294587
0.0289919
0.0281952
0.0285845
0.0414778
0.0383235
0.0376284
0.0363714
0.0353499
0.0342164
0.0330985
0.032011
0.0309833
0.0301127
0.0292674
0.0288855
0.0279932
0.0287409
0.0409845
0.0379279
0.0372568
0.0360347
0.0350369
0.0339247
0.0328234
0.031752
0.0307317
0.0298893
0.029019
0.0287651
0.0277137
0.0289644
0.0403804
0.037443
0.0368028
0.0356252
0.0346581
0.0335739
0.0324947
0.0314448
0.0304338
0.029631
0.0287174
0.0286488
0.027347
0.0292678
0.0396731
0.0368747
0.0362726
0.0351495
0.0342213
0.0331724
0.0321214
0.0310997
0.0300991
0.0293513
0.0283667
0.0285597
0.0268808
0.0296678
0.0388711
0.0362292
0.0356732
0.0346153
0.0337349
0.03273
0.0317142
0.0307282
0.0297387
0.029066
0.0279711
0.0285253
0.0263021
0.0301865
0.0379834
0.0355135
0.0350121
0.0340308
0.0332084
0.0322569
0.0312843
0.0303432
0.0293647
0.0287929
0.0275349
0.0285765
0.0255941
0.030861
0.0370196
0.0347346
0.0342971
0.0334046
0.0326514
0.0317642
0.0308438
0.0299582
0.0289895
0.0285512
0.0270629
0.0287497
0.0247272
0.0317407
0.0359891
0.0338996
0.0335362
0.0327456
0.0320741
0.0312632
0.030405
0.0295872
0.0286266
0.0283608
0.0265575
0.0290856
0.0237145
0.0327788
0.034901
0.0330151
0.032737
0.0320623
0.0314863
0.0307649
0.02998
0.0292435
0.0282889
0.0282469
0.0260291
0.0295503
0.0228963
0.0336626
0.0337638
0.0320876
0.0319067
0.0313627
0.0308972
0.0302798
0.0295804
0.0289397
0.0279851
0.028225
0.0255824
0.0298977
0.0222721
0.0346282
0.0325847
0.0311224
0.0310515
0.0306542
0.0303154
0.0298175
0.0292169
0.0286871
0.027728
0.0282079
0.0253237
0.0303498
0.0216055
0.035757
0.0313699
0.0301241
0.0301771
0.0299431
0.0297483
0.0293863
0.0288986
0.0284933
0.0275931
0.0282233
0.0251227
0.0309928
0.0209287
0.0369897
0.0301238
0.029096
0.0292876
0.0292345
0.0292018
0.0289927
0.0286329
0.0283529
0.0275352
0.0283512
0.0249827
0.0317895
0.0203625
0.0382444
0.0288491
0.0280402
0.0283858
0.0285319
0.02868
0.0286409
0.028426
0.0282828
0.0275502
0.028578
0.024952
0.0326793
0.0200098
0.0393977
0.027546
0.0269572
0.027473
0.0278371
0.0281852
0.028333
0.0282783
0.0282847
0.0276515
0.0288802
0.0250811
0.0335879
0.020019
0.0403
0.0262126
0.0258459
0.0265487
0.02715
0.0277172
0.0280687
0.0281889
0.0283538
0.0278454
0.0292376
0.0254142
0.034428
0.0205621
0.0408401
0.0248448
0.0247036
0.0256108
0.0264688
0.0272733
0.0278448
0.0281544
0.0284831
0.0281317
0.0296346
0.0259881
0.0351233
0.0217834
0.0410318
0.0234355
0.0235252
0.0246552
0.025789
0.0268488
0.0276553
0.028168
0.028664
0.0285044
0.0300648
0.0268204
0.0356431
0.0237295
0.0410602
0.0219752
0.0223044
0.0236759
0.0251043
0.0264363
0.0274913
0.0282203
0.0288871
0.0289525
0.0305367
0.0279023
0.0360309
0.0263056
0.041226
0.0204522
0.0210363
0.0226623
0.0244063
0.0260257
0.0273414
0.0282991
0.0291434
0.0294612
0.0310708
0.0292032
0.0364036
0.0293036
0.0418118
0.0188523
0.0197104
0.0216047
0.0236842
0.0256048
0.0271923
0.0283906
0.0294252
0.0300169
0.0316911
0.0306844
0.0369131
0.032498
0.0429728
0.0171588
0.0183127
0.020494
0.0229256
0.0251596
0.0270293
0.0284802
0.0297265
0.0306138
0.0324174
0.0323169
0.0376922
0.0357478
0.044708
0.0153527
0.0168314
0.0193163
0.0221164
0.0246742
0.026836
0.0285542
0.0300422
0.0312561
0.0332639
0.0340876
0.0388227
0.0390463
0.0468613
0.0134135
0.0152534
0.0180567
0.0212409
0.0241321
0.0265972
0.0286013
0.0303689
0.0319548
0.0342454
0.035993
0.0403416
0.0424884
0.0491191
0.0113178
0.0135655
0.0166993
0.0202827
0.0235163
0.0262988
0.0286139
0.0307055
0.032723
0.0353806
0.0380308
0.0422677
0.0461026
0.0511868
0.0090436
0.0117525
0.0152277
0.0192248
0.0228105
0.0259293
0.0285882
0.0310545
0.0335728
0.0366902
0.0402039
0.0446064
0.0496386
0.0534176
0.00658464
0.00978554
0.0136247
0.0180501
0.0219999
0.0254804
0.0285234
0.0314227
0.0345171
0.0381917
0.0425287
0.0473174
0.0529437
0.0571071
0.00390963
0.00765624
0.0118731
0.016742
0.0210721
0.024947
0.0284205
0.0318214
0.0355712
0.0398962
0.045023
0.0502813
0.0564344
0.0610175
0.000994145
0.00535043
0.00995544
0.015285
0.0200181
0.0243264
0.028283
0.0322675
0.036753
0.041808
0.047685
0.0534725
0.060034
0.0650181
-0.00218135
0.00285085
0.00785406
0.0136653
0.0188317
0.0236166
0.0281189
0.0327828
0.0380804
0.0439224
0.0505158
0.0568379
0.0637619
0.0691098
-0.00563529
0.000140633
0.00555197
0.0118718
0.0175091
0.0228171
0.0279434
0.0333922
0.0395685
0.0462315
0.0535075
0.0603507
0.0676101
0.0732573
-0.00938502
-0.00279646
0.00303312
0.0098964
0.0160467
0.0219311
0.0277799
0.034121
0.0412279
0.0487251
0.0566512
0.0639916
0.0715669
0.0774798
-0.0134461
-0.00597634
0.000283107
0.00773406
0.0144406
0.0209692
0.0276587
0.0349916
0.0430646
0.0513929
0.0599375
0.0677492
0.075627
0.0817774
-0.017832
-0.00941453
-0.00270986
0.00538141
0.0126874
0.019953
0.0276136
0.036023
0.0450816
0.0542264
0.0633589
0.0716181
0.0797857
0.0861592
-0.0225539
-0.0131258
-0.00595388
0.00283506
0.0107892
0.0189146
0.0276779
0.0372299
0.0472795
0.0572186
0.0669103
0.0755966
0.0840423
0.0906303
-0.0276204
-0.0171232
-0.00945277
9.05574e-05
0.00875813
0.0178941
0.0278827
0.0386238
0.0496586
0.0603655
0.07059
0.0796858
0.0883983
0.0951969
-0.0330371
-0.0214174
-0.0132063
-0.0028566
0.00662059
0.0169355
0.0282557
0.0402142
0.0522194
0.0636655
0.0743985
0.083889
0.0928572
0.0998645
-0.0388063
-0.0260145
-0.0172112
-0.00600696
0.00441745
0.0160828
0.028821
0.0420092
0.0549636
0.0671197
0.078339
0.088211
0.0974234
0.104638
-0.0449263
-0.0309146
-0.0214628
-0.00935117
0.0022008
0.0153788
0.0296002
0.0440165
0.0578944
0.0707314
0.0824167
0.0926577
0.102102
0.109524
-0.0513905
-0.0361104
-0.0259558
-0.0128642
2.91518e-05
0.0148635
0.0306126
0.0462445
0.0610169
0.0745061
0.0866384
0.0972357
0.1069
0.114527
-0.0581863
-0.0415861
-0.0306826
-0.0165022
-0.00203692
0.0145746
0.0318765
0.0487022
0.0643381
0.078451
0.0910119
0.101952
0.111823
0.119652
-0.0652936
-0.0473176
-0.0356308
-0.0202033
-0.00393741
0.0145473
0.0334094
0.0513999
0.0678664
0.0825749
0.095546
0.106815
0.116877
0.124903
-0.0726831
-0.0532734
-0.0407773
-0.0238914
-0.00561392
0.0148149
0.0352289
0.054349
0.071612
0.0868875
0.10025
0.11183
0.122069
0.130287
-0.0803144
-0.0594159
-0.0460835
-0.0274819
-0.00700983
0.0154091
0.037353
0.0575623
0.0755861
0.0913995
0.105133
0.117007
0.127405
0.135806
-0.0881347
-0.065702
-0.0514911
-0.0308873
-0.00807019
0.0163603
0.0397999
0.0610539
0.0798011
0.0961221
0.110206
0.122352
0.132891
0.141466
-0.0960775
-0.072083
-0.0569197
-0.0340208
-0.00874182
0.017698
0.0425885
0.0648386
0.0842701
0.101067
0.115477
0.127872
0.138534
0.147271
-0.104063
-0.078504
-0.0622691
-0.0367981
-0.0089735
0.0194514
0.0457381
0.0689321
0.0890064
0.106245
0.120956
0.133574
0.144337
0.153223
-0.111999
-0.0849022
-0.0674223
-0.0391384
-0.00871633
0.021649
0.0492687
0.0733506
0.0940237
0.111668
0.126652
0.139465
0.150307
0.159326
-0.119782
-0.0912053
-0.0722517
-0.040964
-0.00792391
0.0243189
0.0532001
0.0781105
0.0993358
0.117347
0.132573
0.145551
0.156449
0.165582
-0.127301
-0.09733
-0.0766259
-0.0422003
-0.00655246
0.0274887
0.0575526
0.0832282
0.104956
0.123293
0.138728
0.151837
0.162766
0.171994
-0.134438
-0.103181
-0.0804147
-0.0427757
-0.00456096
0.0311849
0.062346
0.0887197
0.110896
0.129516
0.145123
0.158328
0.169263
0.178562
-0.141074
-0.10865
-0.0834945
-0.0426222
-0.0019111
0.035433
0.0675997
0.0946003
0.11717
0.136025
0.151764
0.165029
0.175943
0.185288
-0.147086
-0.113619
-0.085751
-0.0416761
0.00143266
0.0402572
0.073332
0.100885
0.123788
0.142827
0.158658
0.171943
0.182809
0.192172
-0.152354
-0.117962
-0.087081
-0.0398782
0.00550299
0.0456801
0.0795606
0.107586
0.130759
0.149931
0.165809
0.179074
0.189861
0.19921
-0.15676
-0.121544
-0.0873931
-0.0371751
0.0103297
0.0517224
0.0863013
0.114717
0.138094
0.157343
0.173221
0.186424
0.197101
0.2064
-0.16019
-0.124231
-0.0866073
-0.0335196
0.0159393
0.0584027
0.0935685
0.122288
0.145799
0.165067
0.180896
0.193994
0.204527
0.213735
-0.162534
-0.125891
-0.0846553
-0.0288707
0.0223553
0.0657374
0.101375
0.130309
0.15388
0.173107
0.188837
0.201788
0.21214
0.221211
-0.163689
-0.126396
-0.0814792
-0.0231945
0.0295976
0.0737402
0.10973
0.138785
0.162342
0.181465
0.197044
0.209805
0.219941
0.228849
-0.163557
-0.125628
-0.0770312
-0.016464
0.0376822
0.0824224
0.118643
0.147722
0.171187
0.190141
0.205517
0.218042
0.22792
0.2367
-0.162047
-0.123483
-0.0712702
-0.00865842
0.0466215
0.0917922
0.128119
0.157124
0.180416
0.199137
0.214257
0.226495
0.236054
0.244786
-0.159079
-0.11987
-0.0641631
0.000236727
0.0564239
0.101855
0.13816
0.166991
0.19003
0.208452
0.223265
0.235157
0.244347
0.252992
-0.154577
-0.114712
-0.0556855
0.01023
0.0670934
0.112611
0.148766
0.177323
0.200027
0.218082
0.232531
0.244003
0.252864
0.261261
-0.148477
-0.10795
-0.0458221
0.0213237
0.0786294
0.124062
0.15994
0.188119
0.2104
0.228015
0.242026
0.253053
0.261572
0.269627
-0.140724
-0.0995374
-0.0345665
0.0335139
0.0910265
0.136205
0.171678
0.199368
0.221134
0.238241
0.251763
0.262298
0.270443
0.278107
-0.131271
-0.0894428
-0.0219206
0.0467909
0.104277
0.149035
0.18397
0.211049
0.232224
0.248761
0.261732
0.271732
0.27946
0.2867
-0.120084
-0.07765
-0.00789466
0.061142
0.118375
0.162537
0.196786
0.223163
0.243666
0.259563
0.271925
0.281345
0.288615
0.295399
-0.107138
-0.0641567
0.00749314
0.0765511
0.133325
0.17667
0.210111
0.235701
0.255446
0.270633
0.28233
0.291126
0.297899
0.304195
-0.0924222
-0.0489744
0.0242176
0.0929943
0.149105
0.191399
0.223947
0.248646
0.267548
0.281958
0.292934
0.301063
0.307303
0.313076
-0.0759356
-0.0321274
0.0422466
0.110435
0.165599
0.20679
0.238271
0.261978
0.279956
0.293523
0.303723
0.311144
0.316815
0.322028
-0.0576898
-0.01365
0.0615377
0.128834
0.182826
0.222777
0.25306
0.275675
0.292652
0.305311
0.314681
0.321355
0.326424
0.331038
-0.0377084
0.00641472
0.0820386
0.148146
0.200767
0.239321
0.26829
0.289714
0.305614
0.317303
0.325793
0.331682
0.336116
0.340092
-0.0160283
0.0280014
0.103708
0.168331
0.219384
0.256389
0.283929
0.304071
0.318821
0.329481
0.337041
0.342109
0.345876
0.349171
0.00729626
0.050985
0.126559
0.189348
0.238633
0.273945
0.299946
0.318719
0.332249
0.341822
0.348405
0.35262
0.355688
0.358256
0.0321951
0.0751866
0.150625
0.211173
0.258465
0.291948
0.316308
0.333627
0.345873
0.354304
0.359867
0.363199
0.365532
0.367322
0.0585961
0.100596
0.175758
0.233748
0.278828
0.310356
0.332978
0.348766
0.359665
0.366905
0.371407
0.373828
0.375392
0.376345
0.0864299
0.127676
0.201342
0.256968
0.299669
0.329122
0.349917
0.364102
0.373598
0.379599
0.383001
0.384492
0.385257
0.385306
0.115593
0.155968
0.227607
0.280747
0.320935
0.3482
0.367085
0.379601
0.387642
0.39236
0.394629
0.395175
0.395115
0.394182
0.145988
0.185315
0.254551
0.305012
0.342564
0.367541
0.384439
0.395228
0.401767
0.405161
0.406269
0.405869
0.404939
0.402862
0.177574
0.215506
0.282111
0.32969
0.364494
0.387092
0.401936
0.410945
0.415939
0.417975
0.417908
0.416568
0.414656
0.41107
0.210182
0.246433
0.310195
0.354706
0.386662
0.4068
0.419531
0.426714
0.430127
0.430777
0.429534
0.427254
0.424151
0.418598
0.243661
0.277997
0.338706
0.379983
0.409
0.42661
0.437176
0.442494
0.444295
0.44354
0.441127
0.437871
0.433356
0.425991
0.277875
0.310083
0.36754
0.405442
0.431442
0.446466
0.454824
0.458245
0.45841
0.456239
0.452653
0.448334
0.442282
0.434659
0.312682
0.342563
0.396594
0.430999
0.453918
0.466308
0.472426
0.473926
0.472437
0.468845
0.464068
0.45861
0.451267
0.443647
0.347935
0.375311
0.425758
0.456571
0.476357
0.486079
0.489932
0.489494
0.486342
0.481326
0.47534
0.468723
0.460305
0.452517
0.383481
0.408193
0.454926
0.48207
0.498687
0.505719
0.507292
0.504907
0.500088
0.493649
0.486442
0.478678
0.469321
0.461211
0.419166
0.441077
0.483987
0.507411
0.520838
0.525167
0.524455
0.520123
0.51364
0.505783
0.497349
0.488462
0.478238
0.469667
0.454836
0.473828
0.512834
0.532506
0.542736
0.544362
0.541371
0.535098
0.526962
0.517695
0.50804
0.498058
0.487003
0.477876
0.490334
0.506313
0.541357
0.557267
0.564309
0.563246
0.557989
0.549791
0.540017
0.529353
0.518488
0.50744
0.495577
0.485831
0.525505
0.538396
0.569449
0.581608
0.585485
0.581757
0.574259
0.564159
0.552769
0.540727
0.528671
0.516584
0.50393
0.493524
0.560194
0.569945
0.597003
0.605442
0.606193
0.599837
0.59013
0.578159
0.565182
0.551787
0.538562
0.525465
0.512036
0.500947
0.594248
0.60083
0.623916
0.628684
0.626362
0.617427
0.605555
0.591751
0.577221
0.562504
0.548136
0.534059
0.519873
0.50809
0.627516
0.630922
0.650083
0.651252
0.645925
0.634469
0.620485
0.604895
0.588852
0.572847
0.557369
0.542343
0.527422
0.514942
0.65985
0.660099
0.675407
0.673064
0.664813
0.650908
0.634873
0.61755
0.600041
0.582789
0.566237
0.550296
0.534664
0.521491
0.691106
0.688239
0.699789
0.694041
0.682962
0.666689
0.648673
0.629679
0.610756
0.592302
0.574717
0.557897
0.541581
0.527726
0.721145
0.715228
0.723137
0.714108
0.700308
0.68176
0.661842
0.641244
0.620967
0.60136
0.582784
0.565126
0.548156
0.533635
0.749833
0.740954
0.745362
0.733191
0.716792
0.696071
0.674338
0.65221
0.630641
0.609937
0.590418
0.571965
0.554373
0.539205
0.777043
0.765312
0.766377
0.751222
0.732355
0.709574
0.68612
0.662543
0.639752
0.61801
0.597599
0.578394
0.560216
0.544427
0.802654
0.788201
0.786104
0.768134
0.746944
0.722223
0.697151
0.672212
0.648272
0.625554
0.604306
0.584399
0.56567
0.549289
0.826551
0.809528
0.804466
0.783865
0.760506
0.733976
0.707394
0.681185
0.656175
0.632548
0.610521
0.589961
0.570722
0.553782
0.848629
0.829206
0.821392
0.798357
0.772994
0.744793
0.716817
0.689436
0.663439
0.638973
0.616228
0.595068
0.575358
0.557896
0.86879
0.847154
0.836818
0.811559
0.784364
0.754637
0.725388
0.696938
0.67004
0.64481
0.62141
0.599704
0.579565
0.561623
0.886944
0.863298
0.850684
0.82342
0.794576
0.763474
0.733081
0.703668
0.67596
0.650042
0.626053
0.603857
0.583334
0.564955
0.90301
0.877573
0.862938
0.833897
0.803594
0.771275
0.739868
0.709604
0.681179
0.654654
0.630144
0.607516
0.586654
0.567885
0.916918
0.889921
0.873531
0.842952
0.811385
0.778013
0.745729
0.714728
0.685684
0.658632
0.633672
0.610671
0.589516
0.570407
0.928605
0.90029
0.882424
0.850551
0.817922
0.783665
0.750644
0.719024
0.689459
0.661966
0.636627
0.613313
0.591913
0.572516
0.93802
0.908639
0.889581
0.856666
0.823181
0.788212
0.754597
0.722479
0.692494
0.664644
0.639002
0.615436
0.593838
0.574209
0.945121
0.914933
0.894976
0.861274
0.827143
0.791637
0.757574
0.72508
0.694779
0.666661
0.640789
0.617033
0.595286
0.575479
0.949876
0.919147
0.898587
0.864358
0.829795
0.793928
0.759566
0.72682
0.696307
0.66801
0.641984
0.618101
0.596253
0.576327
0.952265
0.921263
0.9004
0.865907
0.831127
0.795079
0.760566
0.727693
0.697073
0.668686
0.642583
0.618637
0.596741
0.576766
0.952276
0.921273
0.900408
0.865914
0.831133
0.795083
0.76057
0.727696
0.697076
0.668687
0.642584
0.618639
0.596743
0.576773
0.94991
0.919176
0.898612
0.86438
0.829813
0.793943
0.759577
0.726828
0.696313
0.668014
0.641986
0.618103
0.596255
0.576329
0.945177
0.914981
0.895017
0.861309
0.827172
0.79166
0.757592
0.725093
0.694788
0.666667
0.640792
0.617035
0.595285
0.575476
0.938096
0.908705
0.889638
0.856714
0.82322
0.788243
0.754621
0.722496
0.692505
0.664651
0.639004
0.615436
0.593835
0.574201
0.928701
0.900373
0.882495
0.850611
0.81797
0.783703
0.750673
0.719044
0.689471
0.661972
0.636628
0.613312
0.591908
0.572505
0.917032
0.890019
0.873616
0.843022
0.811442
0.778057
0.745761
0.71475
0.685696
0.658637
0.633671
0.610667
0.589509
0.570392
0.903141
0.877686
0.863034
0.833976
0.803657
0.771323
0.739903
0.709626
0.681191
0.654658
0.630142
0.607511
0.586645
0.567866
0.887089
0.863423
0.850791
0.823506
0.794645
0.763525
0.733116
0.70369
0.67597
0.650045
0.626049
0.60385
0.583325
0.564934
0.868947
0.847289
0.836933
0.811651
0.784437
0.75469
0.725425
0.69696
0.67005
0.644812
0.621405
0.599697
0.579555
0.5616
0.848797
0.82935
0.821514
0.798455
0.773069
0.744847
0.716853
0.689457
0.663448
0.638974
0.616223
0.595061
0.575348
0.557871
0.826727
0.809679
0.804593
0.783965
0.760583
0.734031
0.70743
0.681206
0.656184
0.632548
0.610516
0.589955
0.570712
0.553755
0.802835
0.788357
0.786235
0.768236
0.747021
0.722278
0.697186
0.672232
0.64828
0.625554
0.604301
0.584393
0.565662
0.549261
0.777228
0.765471
0.766511
0.751326
0.732433
0.709629
0.686155
0.662563
0.63976
0.61801
0.597595
0.57839
0.560209
0.544398
0.750019
0.741116
0.745496
0.733295
0.716869
0.696125
0.674372
0.652229
0.63065
0.609939
0.590416
0.571962
0.554368
0.539175
0.721331
0.71539
0.723271
0.714211
0.700385
0.681814
0.661876
0.641263
0.620976
0.601363
0.582783
0.565125
0.548152
0.533604
0.69129
0.6884
0.699922
0.694143
0.683038
0.666742
0.648707
0.629699
0.610767
0.592306
0.574717
0.557898
0.541579
0.527695
0.66003
0.660257
0.675538
0.673164
0.664887
0.65096
0.634906
0.617571
0.600053
0.582795
0.56624
0.550299
0.534664
0.52146
0.627692
0.631077
0.650212
0.65135
0.645998
0.63452
0.620519
0.604917
0.588865
0.572854
0.557374
0.542348
0.527425
0.514911
0.594418
0.60098
0.62404
0.62878
0.626434
0.617477
0.60559
0.591774
0.577236
0.562513
0.548142
0.534066
0.519878
0.508059
0.560356
0.570091
0.597124
0.605535
0.606263
0.599887
0.590165
0.578183
0.565198
0.551799
0.53857
0.525475
0.512044
0.500916
0.525659
0.538536
0.569566
0.581698
0.585553
0.581807
0.574294
0.564184
0.552787
0.540741
0.528681
0.516597
0.503941
0.493494
0.49048
0.506446
0.541469
0.557355
0.564376
0.563295
0.558025
0.549818
0.540038
0.529369
0.518501
0.507455
0.495592
0.485803
0.454973
0.473955
0.512941
0.532591
0.542801
0.544412
0.541408
0.535126
0.526985
0.517713
0.508054
0.498076
0.487022
0.477851
0.419294
0.441196
0.48409
0.507493
0.520902
0.525216
0.524493
0.520152
0.513665
0.505803
0.497366
0.488482
0.478262
0.469646
0.383599
0.408305
0.455023
0.482149
0.49875
0.505768
0.507331
0.504938
0.500114
0.493672
0.486461
0.4787
0.469351
0.461197
0.348044
0.375416
0.425851
0.456647
0.476418
0.486128
0.489972
0.489526
0.48637
0.481351
0.475361
0.468747
0.460342
0.452518
0.312782
0.342662
0.396682
0.431072
0.453978
0.466358
0.472466
0.47396
0.472467
0.468872
0.464091
0.458634
0.451311
0.443677
0.277966
0.310174
0.367623
0.405512
0.431501
0.446515
0.454865
0.45828
0.458441
0.456268
0.452679
0.448358
0.442329
0.434738
0.243744
0.278082
0.338784
0.380051
0.409058
0.42666
0.437218
0.44253
0.444328
0.443571
0.441156
0.437897
0.433401
0.42611
0.210256
0.24651
0.310269
0.354771
0.386719
0.406849
0.419574
0.426751
0.430161
0.430809
0.429565
0.427283
0.424191
0.418696
0.17764
0.215577
0.28218
0.329752
0.36455
0.387141
0.40198
0.410984
0.415975
0.418009
0.417941
0.416599
0.41469
0.411137
0.146048
0.18538
0.254617
0.305073
0.342619
0.36759
0.384483
0.395268
0.401803
0.405195
0.406303
0.405901
0.404971
0.402913
0.115645
0.156027
0.227669
0.280806
0.320989
0.348249
0.367129
0.379642
0.387679
0.392395
0.394663
0.395207
0.395146
0.394225
0.0864768
0.12773
0.2014
0.257024
0.299722
0.329171
0.349962
0.364143
0.373636
0.379634
0.383036
0.384524
0.385288
0.385346
0.0586376
0.100645
0.175813
0.233802
0.27888
0.310404
0.333023
0.348807
0.359703
0.366941
0.371441
0.373861
0.375423
0.376382
0.0322318
0.0752317
0.150677
0.211226
0.258517
0.291997
0.316354
0.333669
0.345911
0.35434
0.359902
0.363231
0.365562
0.367356
0.00732866
0.0510264
0.126608
0.189398
0.238684
0.273993
0.299992
0.318761
0.332288
0.341858
0.34844
0.352652
0.355717
0.358288
-0.0159996
0.0280392
0.103754
0.16838
0.219434
0.256437
0.283974
0.304114
0.318861
0.329517
0.337075
0.342141
0.345906
0.349202
-0.0376828
0.00644941
0.0820823
0.148194
0.200816
0.239369
0.268335
0.289757
0.305654
0.31734
0.325828
0.331714
0.336145
0.340121
-0.0576668
-0.0136179
0.0615793
0.128881
0.182875
0.222825
0.253106
0.275717
0.292691
0.305348
0.314716
0.321387
0.326453
0.331067
-0.0759146
-0.0320975
0.0422864
0.11048
0.165646
0.206838
0.238316
0.262021
0.279996
0.29356
0.303757
0.311176
0.316844
0.322056
-0.0924028
-0.0489462
0.0242559
0.0930385
0.149152
0.191447
0.223992
0.248689
0.267588
0.281995
0.292968
0.301095
0.307332
0.313103
-0.10712
-0.0641298
0.00753011
0.0765945
0.133372
0.176717
0.210157
0.235744
0.255485
0.27067
0.282364
0.291158
0.297928
0.304222
-0.120066
-0.0776241
-0.00785873
0.0611847
0.118422
0.162584
0.196831
0.223205
0.243706
0.2596
0.27196
0.281377
0.288645
0.295426
-0.131253
-0.0894174
-0.0218854
0.046833
0.104323
0.149082
0.184015
0.211092
0.232264
0.248798
0.261767
0.271764
0.27949
0.286726
-0.140706
-0.0995121
-0.0345319
0.0335555
0.0910722
0.136251
0.171723
0.199411
0.221174
0.238278
0.251797
0.26233
0.270472
0.278133
-0.148459
-0.107925
-0.0457878
0.021365
0.0786749
0.124109
0.159985
0.188162
0.21044
0.228052
0.24206
0.253085
0.261601
0.269654
-0.154558
-0.114686
-0.0556513
0.0102711
0.0671387
0.112658
0.148812
0.177366
0.200067
0.218119
0.232565
0.244036
0.252893
0.261287
-0.159059
-0.119843
-0.0641288
0.000277768
0.0564691
0.101901
0.138205
0.167034
0.19007
0.20849
0.2233
0.235189
0.244376
0.253019
-0.162026
-0.123455
-0.0712357
-0.00861731
0.0466668
0.0918388
0.128164
0.157167
0.180457
0.199175
0.214292
0.226527
0.236084
0.244813
-0.163534
-0.125599
-0.0769961
-0.0164227
0.0377275
0.082469
0.118689
0.147766
0.171227
0.190179
0.205552
0.218074
0.22795
0.236727
-0.163664
-0.126366
-0.0814436
-0.0231529
0.0296431
0.073787
0.109776
0.138829
0.162383
0.181503
0.197079
0.209838
0.219971
0.228876
-0.162508
-0.125859
-0.0846188
-0.0288286
0.022401
0.0657843
0.101421
0.130353
0.153921
0.173145
0.188873
0.201821
0.21217
0.221238
-0.160162
-0.124197
-0.0865699
-0.033477
0.0159853
0.0584499
0.093615
0.122333
0.14584
0.165105
0.180932
0.194027
0.204557
0.213761
-0.15673
-0.121508
-0.0873546
-0.037132
0.010376
0.0517699
0.0863481
0.114762
0.138135
0.157382
0.173257
0.186457
0.197131
0.206427
-0.152322
-0.117924
-0.0870413
-0.0398343
0.00554975
0.0457279
0.0796077
0.107631
0.130801
0.14997
0.165845
0.179107
0.189892
0.199237
-0.147051
-0.11358
-0.08571
-0.0416314
0.00147987
0.0403054
0.0733795
0.10093
0.12383
0.142867
0.158694
0.171977
0.182839
0.192198
-0.141037
-0.108609
-0.0834521
-0.0425767
-0.00186337
0.0354816
0.0676475
0.0946461
0.117213
0.136064
0.151801
0.165063
0.175974
0.185315
-0.1344
-0.103138
-0.0803709
-0.0427293
-0.00451268
0.0312339
0.0623943
0.088766
0.11094
0.129556
0.14516
0.158362
0.169294
0.178589
-0.12726
-0.0972858
-0.0765807
-0.042153
-0.00650358
0.0275382
0.0576014
0.083275
0.105
0.123334
0.138765
0.151871
0.162797
0.172021
-0.11974
-0.0911598
-0.0722052
-0.0409158
-0.00787439
0.0243689
0.0532494
0.0781579
0.0993803
0.117388
0.132611
0.145585
0.15648
0.165609
-0.111955
-0.0848554
-0.0673744
-0.0390893
-0.00866616
0.0216995
0.0493185
0.0733986
0.0940689
0.11171
0.12669
0.1395
0.150338
0.159353
-0.104017
-0.078456
-0.06222
-0.036748
-0.00892266
0.0195025
0.0457886
0.0689807
0.0890522
0.106287
0.120995
0.133609
0.144368
0.15325
-0.0960302
-0.0720339
-0.0568695
-0.0339699
-0.00869029
0.0177498
0.0426396
0.0648879
0.0843166
0.10111
0.115516
0.127907
0.138565
0.147298
-0.0880859
-0.065652
-0.0514399
-0.0308356
-0.00801798
0.0164127
0.0398517
0.0611039
0.0798485
0.0961659
0.110246
0.122388
0.132923
0.141493
-0.0802645
-0.0593651
-0.0460315
-0.0274294
-0.00695693
0.0154622
0.0374055
0.0576132
0.0756343
0.0914442
0.105174
0.117043
0.127437
0.135834
-0.0726321
-0.0532218
-0.0407246
-0.0238382
-0.00556035
0.0148687
0.0352822
0.0544007
0.0716611
0.0869331
0.100292
0.111867
0.122102
0.130314
-0.0652417
-0.0472653
-0.0355776
-0.0201495
-0.00388319
0.0146017
0.0334634
0.0514525
0.0679165
0.0826215
0.0955885
0.106852
0.11691
0.124931
-0.0581337
-0.0415333
-0.030629
-0.0164479
-0.00198209
0.0146297
0.0319314
0.0487558
0.0643893
0.0784988
0.0910554
0.101991
0.111857
0.11968
-0.0513372
-0.0360572
-0.0259018
-0.0128094
8.45495e-05
0.0149194
0.0306684
0.0462992
0.0610693
0.074555
0.086683
0.0972752
0.106934
0.114555
-0.0448725
-0.0308611
-0.0214086
-0.00929609
0.00225672
0.0154354
0.0296569
0.0440723
0.0579481
0.0707816
0.0824625
0.0926982
0.102137
0.109553
-0.038752
-0.0259606
-0.0171568
-0.00595168
0.00447383
0.0161402
0.0288787
0.0420662
0.0550186
0.0671714
0.0783861
0.0882527
0.0974589
0.104668
-0.0329824
-0.0213633
-0.0131518
-0.00280118
0.00667737
0.0169935
0.0283144
0.0402726
0.052276
0.0637188
0.0744471
0.0839319
0.0928935
0.0998941
-0.0275654
-0.017069
-0.00939818
0.000146067
0.00881526
0.0179529
0.0279426
0.0386836
0.0497169
0.0604205
0.0706402
0.0797302
0.0884357
0.0952271
-0.0224986
-0.0130715
-0.00589922
0.00289063
0.0108466
0.018974
0.0277388
0.0372912
0.0473395
0.0572755
0.0669624
0.0756425
0.0840807
0.0906611
-0.0177765
-0.00936018
-0.00265516
0.00543703
0.0127451
0.0200131
0.0276757
0.0360859
0.0451435
0.0542853
0.0634129
0.0716658
0.0798253
0.0861907
-0.0133904
-0.00592194
0.000337828
0.00778975
0.0144985
0.02103
0.027722
0.0350562
0.0431286
0.0514542
0.0599938
0.0677988
0.0756681
0.0818098
-0.00932912
-0.00274203
0.00308787
0.00995217
0.0161049
0.0219925
0.0278443
0.0341873
0.041294
0.0487887
0.0567099
0.0640433
0.0716096
0.0775131
-0.00557926
0.000195077
0.00560675
0.0119276
0.0175676
0.0228791
0.0280089
0.0334602
0.0396369
0.0462978
0.0535689
0.0604049
0.0676546
0.0732916
-0.0021252
0.00290528
0.00790886
0.0137213
0.0188905
0.0236792
0.0281856
0.0328525
0.0381512
0.0439915
0.05058
0.0568948
0.0638083
0.0691453
0.00105034
0.00540484
0.0100103
0.0153411
0.0200772
0.0243896
0.0283508
0.032339
0.0368261
0.04188
0.0477523
0.0535323
0.0600828
0.0650548
0.0039658
0.00771059
0.011928
0.0167983
0.0211315
0.0250108
0.0284893
0.0318946
0.0356467
0.0399712
0.0450936
0.0503442
0.0564857
0.0610555
0.00664082
0.00983971
0.0136795
0.0181065
0.0220596
0.0255448
0.0285931
0.0314974
0.0345949
0.0382698
0.0426028
0.0473838
0.052998
0.0571464
0.00909999
0.0118061
0.0152824
0.0192812
0.0228705
0.0259942
0.0286589
0.0311307
0.0336528
0.0367713
0.0402815
0.0446765
0.0496964
0.053458
0.0113737
0.0136191
0.0167539
0.0203392
0.0235766
0.0263642
0.0286854
0.030783
0.032805
0.0354645
0.038112
0.0423416
0.0461645
0.0512295
0.0134688
0.0153067
0.0181111
0.0212973
0.0241925
0.026663
0.0286734
0.0304475
0.0320386
0.0343321
0.0360776
0.0404197
0.0425548
0.0491654
0.0154075
0.0168842
0.0193704
0.0221727
0.0247347
0.026902
0.0286269
0.0301218
0.0313413
0.0333529
0.0341753
0.0389048
0.0391171
0.0469117
0.0172128
0.018365
0.0205475
0.0229816
0.0252199
0.0270954
0.0285532
0.0298067
0.0307002
0.0325084
0.0324074
0.0377785
0.0358225
0.0447625
0.0189055
0.019762
0.0216577
0.0237397
0.0256648
0.0272583
0.0284636
0.0295057
0.030104
0.0317838
0.0307771
0.0370031
0.032576
0.0430315
0.0205044
0.0210869
0.0227145
0.0244611
0.0260852
0.027407
0.0283719
0.0292238
0.0295486
0.0311645
0.0292974
0.0364969
0.0293844
0.0418748
0.0220262
0.0223542
0.0237272
0.0251584
0.0264951
0.0275562
0.0282924
0.0289671
0.0290399
0.0306308
0.0279976
0.0361265
0.0263889
0.041293
0.0234851
0.0235738
0.0247053
0.0258421
0.0269066
0.0277193
0.0282393
0.0287432
0.0285911
0.0301588
0.026916
0.0357401
0.0238148
0.0411306
0.0248929
0.0247508
0.0256596
0.0265207
0.0273299
0.0279076
0.0282244
0.0285611
0.0282172
0.0297277
0.0260835
0.0352205
0.0218704
0.0411044
0.0262591
0.0258917
0.0265961
0.0272005
0.0277723
0.02813
0.0282574
0.0284302
0.0279294
0.0293291
0.0255087
0.0345243
0.0206503
0.0409135
0.0275907
0.0270014
0.0275188
0.0278859
0.0282387
0.0283924
0.0283448
0.028359
0.0277333
0.0289695
0.0251739
0.0336822
0.0201073
0.0403728
0.0288918
0.0280826
0.0284298
0.028579
0.0287316
0.0286983
0.0284902
0.0283546
0.0276294
0.0286644
0.0250424
0.0327708
0.0200971
0.0394687
0.0301645
0.0291365
0.0293297
0.0292796
0.0292512
0.0290477
0.0286946
0.0284218
0.0276113
0.0284343
0.02507
0.0318774
0.0204476
0.0383127
0.0314084
0.0301626
0.0302172
0.029986
0.0297954
0.0294388
0.0289573
0.028559
0.0276658
0.0283024
0.0252064
0.0310765
0.0210102
0.0370545
0.0326209
0.0311587
0.0310894
0.0306948
0.03036
0.0298672
0.0292726
0.0287493
0.0277969
0.0282825
0.025403
0.0304287
0.0216834
0.035818
0.0337976
0.0321216
0.0319422
0.0314008
0.030939
0.0303264
0.0296327
0.0289981
0.0280497
0.0282954
0.0256566
0.0299712
0.022345
0.0346852
0.0349324
0.0330468
0.0327701
0.0320978
0.0315252
0.0308083
0.0300287
0.0292979
0.0283489
0.0283122
0.0260977
0.0296182
0.0229636
0.0337126
0.0360179
0.0339287
0.0335667
0.0327784
0.0321101
0.0313033
0.0304499
0.0296373
0.0286819
0.0284209
0.0266205
0.0291487
0.0237735
0.0328259
0.0370458
0.0347612
0.034325
0.0334346
0.0326843
0.0318008
0.0308847
0.0300039
0.02904
0.0286058
0.0271201
0.0288068
0.02478
0.0317833
0.038007
0.0355375
0.0350372
0.0340577
0.033238
0.0322899
0.0313212
0.0303844
0.0294101
0.028842
0.0275861
0.0286274
0.025641
0.0308983
0.0388919
0.0362505
0.0356954
0.0346392
0.0337613
0.0327593
0.031747
0.0307648
0.0297789
0.0291094
0.0280162
0.0285701
0.026343
0.0302187
0.0396912
0.0368933
0.036292
0.0351704
0.0342443
0.033198
0.03215
0.0311315
0.030134
0.0293889
0.0284058
0.0285983
0.0269158
0.029695
0.0403957
0.0374588
0.0368193
0.0356429
0.0346777
0.0335956
0.0325189
0.0314718
0.0304634
0.0296629
0.0287504
0.0286813
0.0273762
0.0292903
0.0409971
0.0379408
0.0372704
0.0360493
0.0350529
0.0339425
0.0328433
0.0317741
0.0307561
0.0299154
0.029046
0.0287915
0.0277374
0.0289824
0.0414876
0.0383336
0.0376389