/*--------------------------------*- C++ -*----------------------------------*\
  =========                 |
  \\      /  F ield         | OpenFOAM: The Open Source CFD Toolbox
   \\    /   O peration     | Website:  https://openfoam.org
    \\  /    A nd           | Version:  7
     \\/     M anipulation  |
\*---------------------------------------------------------------------------*/
FoamFile
{
    version     2.0;
    format      ascii;
    class       surfaceScalarField;
    location    "25";
    object      phi;
}
// * * * * * * * * * * * * * * * * * * * * * * * * * * * * * * * * * * * * * //

dimensions      [0 3 -1 0 0 0 0];

internalField   nonuniform List<scalar> 
32949
(
-1.3075e-05
1.31308e-05
-5.57958e-08
-4.21176e-05
2.91167e-05
-7.41568e-08
-8.22199e-05
4.01467e-05
-4.44408e-08
-0.000129931
4.77036e-05
7.15658e-09
-0.000183257
5.32576e-05
6.88642e-08
-0.000241089
5.7692e-05
1.39558e-07
-0.000302911
6.15979e-05
2.23985e-07
-0.000368494
6.52548e-05
3.28326e-07
-0.000437759
6.88073e-05
4.57944e-07
-0.000510521
7.21457e-05
6.16487e-07
-0.00058704
7.57136e-05
8.05555e-07
-0.000666663
7.85995e-05
1.02366e-06
-0.000752407
8.44799e-05
1.26417e-06
8.72914e-05
1.52042e-06
-0.000841219
-1.29547e-05
2.60855e-05
-4.1756e-05
5.79179e-05
-8.15239e-05
7.99147e-05
-0.000128812
9.49921e-05
-0.000181616
0.000106061
-0.000238801
0.000114877
-0.000299826
0.000122623
-0.000364429
0.000129858
-0.000432496
0.000136875
-0.000503779
0.000143428
-0.000578511
0.000150445
-0.000655757
0.000155846
-0.000738747
0.00016747
0.000171943
-0.000823398
-1.27166e-05
3.88021e-05
-4.10392e-05
8.62406e-05
-8.01423e-05
0.000119018
-0.00012659
0.00014144
-0.00017835
0.000157821
-0.000234245
0.000170773
-0.000293678
0.000182056
-0.000356322
0.000192501
-0.000421995
0.000202549
-0.000490321
0.000211754
-0.000561492
0.000221617
-0.000634
0.000228354
-0.00071155
0.00024502
0.000248348
-0.000787955
-1.23662e-05
5.11683e-05
-3.99814e-05
0.000113856
-7.80983e-05
0.000157135
-0.000123295
0.000186636
-0.0001735
0.000208026
-0.000227471
0.000224743
-0.000284526
0.000239111
-0.00034424
0.000252215
-0.000406332
0.000264641
-0.000470231
0.000275653
-0.000536103
0.000287488
-0.000601549
0.0002938
-0.000671115
0.000314586
0.000312578
-0.000735346
-1.19116e-05
6.30799e-05
-3.86029e-05
0.000140547
-7.54259e-05
0.000193958
-0.000118976
0.000230186
-0.000167127
0.000256177
-0.000218551
0.000276167
-0.000272455
0.000293015
-0.000328279
0.000308039
-0.000385615
0.000321977
-0.00044363
0.000333667
-0.000502504
0.000346362
-0.000558603
0.000349899
-0.000617806
0.000373789
0.000360927
-0.000666155
-1.13631e-05
7.4443e-05
-3.69305e-05
0.000166115
-7.21695e-05
0.000229197
-0.000113693
0.000271709
-0.00015931
0.000301795
-0.000207582
0.000324439
-0.000257576
0.000343009
-0.000308565
0.000359028
-0.000359981
0.000373394
-0.000410656
0.000384342
-0.000460864
0.00039657
-0.000505358
0.000394394
-0.000551963
0.000420394
0.000389952
-0.000580987
-1.07332e-05
8.51762e-05
-3.49965e-05
0.000190378
-6.83829e-05
0.000262583
-0.000107522
0.000310848
-0.000150144
0.000344417
-0.000194678
0.000368973
-0.000240023
0.000388354
-0.000285244
0.00040425
-0.000329586
0.000417735
-0.000371461
0.000426218
-0.000411338
0.000436447
-0.000441973
0.000425028
-0.000473774
0.000452195
0.000396508
-0.000480331
-1.00365e-05
9.52127e-05
-3.28381e-05
0.000213179
-6.41281e-05
0.000293873
-0.000100549
0.00034727
-0.000139739
0.000383606
-0.000179971
0.000409205
-0.000219946
0.000428329
-0.000258483
0.000442787
-0.000294599
0.00045385
-0.000326197
0.000457817
-0.00035403
0.00046428
-0.000368544
0.000439542
-0.000383133
0.000466784
0.000377789
-0.000364413
-9.28858e-06
0.000104501
-3.04962e-05
0.000234387
-5.9474e-05
0.000322851
-9.28711e-05
0.000380667
-0.000128216
0.000418951
-0.000163608
0.000444597
-0.000197512
0.000462233
-0.000228457
0.000473732
-0.00025519
0.000480582
-0.000275007
0.000477635
-0.000288955
0.000478227
-0.000285106
0.000435694
-0.000279485
0.000461162
0.000331417
-0.000233113
-8.50654e-06
0.000113008
-2.80148e-05
0.000253895
-5.44941e-05
0.00034933
-8.45894e-05
0.000410762
-0.000115705
0.000450067
-0.000145739
0.00047463
-0.000172889
0.000489383
-0.000195341
0.000496184
-0.000211513
0.000496754
-0.000218019
0.000484141
-0.000216
0.000476207
-0.000191688
0.000411383
-0.000161575
0.000431049
0.000256188
-8.63458e-05
-7.70785e-06
0.000120716
-2.54396e-05
0.000271627
-4.92651e-05
0.000373156
-7.58107e-05
0.000437308
-0.000102339
0.000476595
-0.000126519
0.00049881
-0.00014624
0.000509104
-0.000159295
0.000509239
-0.000163686
0.000501145
-0.000155331
0.000475786
-0.000134824
0.000455701
-8.86943e-05
0.000365253
-2.56999e-05
0.000368055
0.000151613
7.8875e-05
-6.91013e-06
0.000127626
-2.28162e-05
0.000287533
-4.38636e-05
0.000394203
-6.66406e-05
0.000460085
-8.82469e-05
0.000498202
-0.000106093
0.000516656
-0.000117713
0.000520725
-0.000120444
0.00051197
-0.000111764
0.000492466
-8.70569e-05
0.000451078
-4.4282e-05
0.000412926
2.39597e-05
0.000297011
0.000117537
0.000274478
2.68693e-06
0.000266463
-6.13056e-06
0.000133756
-2.01894e-05
0.000301592
-3.83642e-05
0.000412378
-5.71803e-05
0.000478901
-7.35493e-05
0.000514571
-8.4587e-05
0.000527694
-8.74174e-05
0.000523555
-7.88455e-05
0.000503398
-5.56235e-05
0.000469244
-1.39123e-05
0.000409367
5.38617e-05
0.000345152
0.000154851
0.000196021
0.000278548
0.000150781
-0.000195121
0.000476356
-5.38533e-06
0.000139142
-1.76008e-05
0.000313807
-3.28356e-05
0.000427613
-4.75205e-05
0.000493586
-5.83485e-05
0.000525399
-6.2097e-05
0.000531442
-5.54147e-05
0.000516873
-3.45068e-05
0.00048249
5.4873e-06
0.00042925
6.76975e-05
0.000347157
0.000160257
0.000252592
0.000296883
5.93958e-05
0.000459536
-1.18718e-05
-0.000447695
0.000712109
-4.689e-06
0.000143831
-1.50873e-05
0.000324206
-2.73373e-05
0.000439863
-3.77364e-05
0.000503985
-4.27195e-05
0.000530382
-3.86712e-05
0.000527394
-2.16787e-05
0.00049988
1.26415e-05
0.00044817
6.99556e-05
0.000371935
0.000155852
0.000261261
0.000278176
0.000130268
0.000452936
-0.000115365
0.000661911
-0.000220846
-0.000761904
0.000976121
-4.0539e-06
0.000147885
-1.26795e-05
0.000332831
-2.19163e-05
0.0004491
-2.78804e-05
0.000509949
-2.66993e-05
0.000529201
-1.42959e-05
0.000514991
1.39149e-05
0.000471669
6.32408e-05
0.000398844
0.000140281
0.000294895
0.000251696
0.000149846
0.000408685
-2.67205e-05
0.000624834
-0.000331514
0.00088739
-0.000483403
-0.00114394
0.00126942
-3.4896e-06
0.000151374
-1.03993e-05
0.000339741
-1.66026e-05
0.000455303
-1.79759e-05
0.000511322
-1.02756e-05
0.0005215
1.11259e-05
0.000493589
5.15914e-05
0.000431204
0.000117465
0.00033297
0.000216849
0.000195511
0.000356735
9.9599e-06
0.000553457
-0.000223442
0.000814603
-0.00059266
0.00113735
-0.000806154
-0.00159727
0.00159069
-3.00225e-06
0.000154376
-8.25864e-06
0.000344997
-1.14058e-05
0.00045845
-8.00974e-06
0.000507926
6.62448e-06
0.000506866
3.77911e-05
0.000462422
9.17842e-05
0.000377211
0.000176123
0.000248631
0.000300773
7.0861e-05
0.000472747
-0.000162014
0.000714184
-0.000464879
0.00102422
-0.000902693
0.00141232
-0.00119426
-0.00212024
0.00193529
-2.59412e-06
0.000156971
-6.25716e-06
0.00034866
-6.31141e-06
0.000458504
2.0751e-06
0.00049954
2.41454e-05
0.000484796
6.60037e-05
0.000420564
0.000135061
0.000308154
0.00024018
0.000143511
0.000393409
-8.23674e-05
0.000601799
-0.000370404
0.000892189
-0.000755269
0.00125486
-0.00126536
0.0017109
-0.0016503
-0.00270401
0.00229467
-2.26316e-06
0.000159234
-4.38096e-06
0.000350778
-1.27714e-06
0.0004554
1.23789e-05
0.000485884
4.25127e-05
0.000454662
9.61985e-05
0.000366878
0.000182172
0.00022218
0.000310817
1.48671e-05
0.000496224
-0.000267775
0.000745924
-0.000620104
0.00108805
-0.0010974
0.00150586
-0.00168317
0.00202843
-0.00217287
-0.00333212
0.00265654
-2.00264e-06
0.000161236
-2.60053e-06
0.000351376
3.76975e-06
0.00044903
2.30655e-05
0.000466588
6.20395e-05
0.000415688
0.000128939
0.000299979
0.000234036
0.000117084
0.000389373
-0.00014047
0.000610653
-0.000489056
0.000906535
-0.000915986
0.00130114
-0.001492
0.00177373
-0.00215576
0.0023558
-0.00275494
-0.00398223
0.00300591
-1.8012e-06
0.000163038
-8.63562e-07
0.000350439
8.93349e-06
0.000439233
3.43479e-05
0.000441173
8.31281e-05
0.000366908
0.000164912
0.000218194
0.000291695
-9.69927e-06
0.000477229
-0.000326004
0.000737896
-0.000749723
0.00108372
-0.00126181
0.00152901
-0.00193729
0.00205161
-0.00267836
0.0026794
-0.00338273
-0.00462981
0.00332698
-1.6437e-06
0.000164681
8.58741e-07
0.000347936
1.4349e-05
0.000425743
4.64968e-05
0.000409026
0.000106265
0.000307139
0.000204906
0.000119553
0.000356255
-0.000161048
0.000575613
-0.000545361
0.000878623
-0.00105273
0.0012757
-0.00165889
0.00176681
-0.00242841
0.00232953
-0.00324108
0.00298284
-0.00403605
-0.00525243
0.00360547
-1.51009e-06
0.000166191
2.6429e-06
0.000343783
2.01833e-05
0.000408202
5.98354e-05
0.000369374
0.00013201
0.000234964
0.000249776
1.78813e-06
0.000428777
-0.00034005
0.000685332
-0.000801916
0.00103254
-0.00139994
0.00147852
-0.00210487
0.00200704
-0.00295693
0.00259548
-0.00382952
0.0032501
-0.00469067
-0.00583307
0.00383073
-1.37441e-06
0.000167566
4.60236e-06
0.000337806
2.66318e-05
0.000386173
7.47305e-05
0.000321275
0.000160974
0.000148721
0.000300381
-0.000137619
0.000510137
-0.000549806
0.000806493
-0.00109827
0.00119788
-0.00179132
0.00168624
-0.00259323
0.00224023
-0.00351092
0.00283717
-0.00442646
0.00346885
-0.00532235
-0.00636137
0.00399716
-1.20264e-06
0.000168768
6.8248e-06
0.000329779
3.39107e-05
0.000359087
9.15811e-05
0.000263604
0.000193786
4.65158e-05
0.000357509
-0.000301342
0.000600847
-0.000793144
0.000938216
-0.00143564
0.00137104
-0.00222415
0.00189132
-0.00311351
0.00245631
-0.0040759
0.00304396
-0.00501412
0.00363259
-0.00591098
-0.00683324
0.00410445
-9.615e-07
0.00016973
9.41418e-06
0.000319403
4.22507e-05
0.000326251
0.000110801
0.000195054
0.000231055
-7.37383e-05
0.000421768
-0.000492055
0.000700841
-0.00107222
0.00107843
-0.00181322
0.00154667
-0.0026924
0.00208551
-0.00365235
0.00264631
-0.0046367
0.00320845
-0.00557626
0.00374065
-0.00644317
-0.00725093
0.00415834
-6.11696e-07
0.000170342
1.24807e-05
0.000306311
5.18893e-05
0.000286842
0.000132797
0.000114146
0.000273314
-0.000214255
0.000493467
-0.000712208
0.000809269
-0.00138802
0.00122377
-0.00222772
0.00171818
-0.00318681
0.00226095
-0.00419512
0.00280369
-0.00517944
0.00332736
-0.00609992
0.00379685
-0.00691266
-0.00763129
0.0041772
-7.59848e-08
0.000170418
1.61353e-05
0.0002901
6.30597e-05
0.000239918
0.000157949
1.92567e-05
0.000320964
-0.00037727
0.000572482
-0.000963726
0.000924343
-0.00173988
0.00136975
-0.00267313
0.00187868
-0.00369574
0.00241138
-0.00472782
0.00292482
-0.00569288
0.0034017
-0.00657681
0.00381424
-0.0073252
-0.00802234
0.0042053
5.29309e-07
0.000169888
2.04795e-05
0.000270149
7.59821e-05
0.000184415
0.00018658
-9.13412e-05
0.000374203
-0.000564892
0.000658128
-0.00124765
0.00104331
-0.00212507
0.00151118
-0.00314099
0.00202201
-0.00420657
0.00253277
-0.00523858
0.00300891
-0.00616902
0.00343595
-0.00700385
0.00381015
-0.00769939
-0.00837016
0.00415796
1.34244e-06
0.000168546
2.56163e-05
0.000245875
9.08523e-05
0.000119179
0.000218929
-0.000219418
0.000432951
-0.000778914
0.00074907
-0.00156377
0.00116263
-0.00253863
0.0016428
-0.00362116
0.00214351
-0.00470728
0.00262351
-0.00571857
0.00305786
-0.00660337
0.00343913
-0.00738513
0.0037743
-0.00803456
-0.0086773
0.00408145
2.38592e-06
0.00016616
3.16344e-05
0.000216627
0.000107833
4.29803e-05
0.000255125
-0.00036671
0.000496781
-0.00102057
0.000843313
-0.0019103
0.00127828
-0.0029736
0.00176001
-0.00410289
0.00224041
-0.00518769
0.00268403
-0.00616219
0.00307592
-0.00699526
0.0034155
-0.00772471
0.00371638
-0.00833544
-0.00895524
0.00399431
3.67806e-06
0.000162482
3.86077e-05
0.000181697
0.000127045
-4.54568e-05
0.000295146
-0.000534811
0.00056486
-0.00129028
0.000938293
-0.00228374
0.00138624
-0.00342155
0.00185932
-0.00457596
0.00231181
-0.00564018
0.00271649
-0.00656687
0.00306759
-0.00734636
0.00337045
-0.00802757
0.00364223
-0.00860722
-0.00920881
0.00389581
5.23709e-06
0.000157245
4.65944e-05
0.00014034
0.000148556
-0.000147418
0.000338795
-0.000725051
0.000635926
-0.00158741
0.00103109
-0.0026789
0.00148298
-0.00387344
0.00193867
-0.00503165
0.00235834
-0.00605985
0.00272394
-0.00693248
0.00303747
-0.00765989
0.00330864
-0.00829874
0.00355585
-0.00885443
-0.00944262
0.00378966
7.07802e-06
0.000150167
5.56358e-05
9.17823e-05
0.000172375
-0.000264157
0.000385658
-0.000938334
0.000708325
-0.00191008
0.00111874
-0.00308932
0.00156578
-0.00432048
0.00199734
-0.0054632
0.00238176
-0.00644427
0.0027099
-0.00726061
0.00298978
-0.00793977
0.00323393
-0.00854289
0.00346053
-0.00908102
-0.00965991
0.00367782
9.21215e-06
0.000140955
6.57548e-05
3.52396e-05
0.000198437
-0.00039684
0.000435082
-0.00117498
0.000780114
-0.00225511
0.00119851
-0.00350772
0.0016329
-0.00475487
0.00203575
-0.00586605
0.00238449
-0.00679301
0.00267786
-0.00755398
0.00292821
-0.00819012
0.00314945
-0.00876413
0.00335857
-0.00929015
-0.00986298
0.00356164
1.16471e-05
0.000129307
7.6956e-05
-3.00693e-05
0.000226595
-0.000546479
0.000486175
-0.00143456
0.00084922
-0.00261816
0.00126819
-0.0039267
0.0016836
-0.00517027
0.00205512
-0.00623756
0.00236921
-0.00710711
0.00263108
-0.00781585
0.00285582
-0.00841486
0.0030576
-0.00896591
0.00325168
-0.00948423
-0.0100535
0.00344216
1.43872e-05
0.00011492
8.92239e-05
-0.000104906
0.000256599
-0.000713854
0.000537832
-0.00171579
0.000913631
-0.00299396
0.00132622
-0.00433929
0.00171796
-0.00556201
0.0020572
-0.0065768
0.00233865
-0.00738856
0.00257246
-0.00804966
0.00277512
-0.00861752
0.00296023
-0.00915102
0.00314107
-0.00966507
-0.0102324
0.00332004
1.74333e-05
9.7487e-05
0.000102522
-0.000189994
0.000288087
-0.00089942
0.000588796
-0.0020165
0.000971566
-0.00337673
0.00137172
-0.00473944
0.00173671
-0.005927
0.002044
-0.00688409
0.00229537
-0.00763994
0.00250446
-0.00825875
0.00268807
-0.00880113
0.00285869
-0.00932164
0.00302758
-0.00983397
-0.0104006
0.00319578
2.07833e-05
7.67037e-05
0.000116787
-0.000285998
0.000320579
-0.00110321
0.000637747
-0.00233367
0.00102161
-0.0037606
0.00140443
-0.00512225
0.001741
-0.00626357
0.00201757
-0.00716067
0.00224167
-0.00786404
0.0024291
-0.00844618
0.00259619
-0.00896822
0.00275398
-0.00947943
0.00291184
-0.00999183
-0.0105585
0.00306971
2.44325e-05
5.22712e-05
0.000131928
-0.000393494
0.000353484
-0.00132477
0.0006834
-0.00266358
0.0010628
-0.00413999
0.00142461
-0.00548407
0.00173224
-0.0065712
0.00197993
-0.00740835
0.00217957
-0.00806368
0.00234806
-0.00861466
0.00250065
-0.00912082
0.00264685
-0.00962563
0.00279428
-0.0101393
-0.0107063
0.00294212
2.83729e-05
2.38983e-05
0.000147815
-0.000512935
0.000386131
-0.00156308
0.000724603
-0.00300205
0.00109458
-0.00450997
0.0014329
-0.00582239
0.00171196
-0.00685026
0.0019329
-0.00762929
0.00211077
-0.00824154
0.00226263
-0.00876652
0.00240233
-0.00926052
0.00253782
-0.00976112
0.00267522
-0.0102767
-0.0108443
0.00281319
3.25939e-05
-8.6956e-06
0.000164274
-0.000644615
0.000417795
-0.00181661
0.000760408
-0.00334467
0.00111682
-0.00486638
0.00143019
-0.00613576
0.00168168
-0.00710174
0.00187816
-0.00782578
0.00203669
-0.00840007
0.00217385
-0.00890368
0.00230188
-0.00938854
0.00242728
-0.00988652
0.00255492
-0.0104043
-0.0109725
0.00268312
3.70811e-05
-4.57767e-05
0.000181086
-0.00078862
0.000447749
-0.00208327
0.000790121
-0.00368704
0.00112969
-0.00520595
0.0014175
-0.00642358
0.00164284
-0.00732708
0.00181714
-0.00800007
0.00195849
-0.00854143
0.00208251
-0.0090277
0.00219979
-0.00950582
0.00231553
-0.0100023
0.00243356
-0.0105223
-0.011091
0.00255203
4.18164e-05
-8.75932e-05
0.00019799
-0.000944793
0.0004753
-0.00236058
0.000813309
-0.00402505
0.00113362
-0.00552627
0.00139594
-0.00668589
0.00159681
-0.00752795
0.00175107
-0.00815434
0.00187711
-0.00866747
0.00198924
-0.00913983
0.00209644
-0.00961302
0.00220281
-0.0101086
0.00231132
-0.0106308
-0.0111997
0.00242008
4.67755e-05
-0.000134369
0.000214691
-0.00111271
0.000499835
-0.00264572
0.000829791
-0.004355
0.00112922
-0.00582569
0.00136661
-0.00692329
0.00154478
-0.00770612
0.001681
-0.00829056
0.0017933
-0.00877976
0.00189451
-0.00924105
0.00199212
-0.00971063
0.00208929
-0.0102058
0.00218833
-0.0107299
-0.0112988
0.00228738
5.19262e-05
-0.000186295
0.000230877
-0.00129166
0.000520846
-0.00293569
0.0008396
-0.00467376
0.00111717
-0.00610326
0.00133056
-0.00713668
0.00148784
-0.0078634
0.0016078
-0.00841052
0.00170765
-0.00887961
0.00179869
-0.00933209
0.00188704
-0.00979898
0.00197513
-0.0102939
0.00206473
-0.0108195
-0.0113881
0.00215406
5.72253e-05
-0.00024352
0.000246232
-0.00148067
0.000537956
-0.00322742
0.00084294
-0.00497874
0.00109823
-0.00635856
0.00128879
-0.00732724
0.00142692
-0.00800153
0.00153218
-0.00851577
0.00162062
-0.00896806
0.00170205
-0.00941351
0.00178139
-0.00987832
0.00186046
-0.0103729
0.00194063
-0.0108996
-0.0114677
0.00202022
6.26172e-05
-0.000306137
0.000260452
-0.0016785
0.000550922
-0.00351789
0.000840145
-0.00526796
0.00107318
-0.0065916
0.00124221
-0.00749626
0.00136282
-0.00812215
0.00145471
-0.00860766
0.0015326
-0.00904594
0.00160482
-0.00948573
0.00167531
-0.00994881
0.0017454
-0.010443
0.00181615
-0.0109704
-0.0115376
0.001886
6.80331e-05
-0.00037417
0.000273255
-0.00188372
0.000559635
-0.00380427
0.000831634
-0.00553996
0.00104278
-0.00680274
0.00119162
-0.00764511
0.00129622
-0.00822674
0.00137588
-0.00868732
0.00144387
-0.00911393
0.00150719
-0.00954905
0.00156893
-0.0100105
0.00163007
-0.0105042
0.00169141
-0.0110317
-0.0115977
0.00175149
7.33922e-05
-0.000447563
0.000284393
-0.00209472
0.0005641
-0.00408397
0.000817881
-0.00579374
0.00100773
-0.00699259
0.00113775
-0.00777513
0.00122768
-0.00831667
0.00129606
-0.00875571
0.00135467
-0.00917254
0.00140931
-0.00960369
0.00146237
-0.0100636
0.00151457
-0.0105564
0.0015665
-0.0110837
-0.011648
0.00161682
7.86057e-05
-0.000526168
0.000293661
-0.00230978
0.000564425
-0.00435474
0.000799386
-0.0060287
0.000968719
-0.00716192
0.00108124
-0.00788765
0.00115768
-0.00839312
0.00121557
-0.00881359
0.00126518
-0.00922216
0.00131129
-0.0096498
0.00135572
-0.010108
0.00139899
-0.0105997
0.00144153
-0.0111262
-0.0116885
0.00148209
8.35808e-05
-0.000609749
0.0003009
-0.0025271
0.000560789
-0.00461463
0.000776658
-0.00624457
0.000926365
-0.00731163
0.00102262
-0.00798391
0.00108663
-0.00845712
0.00113464
-0.0088616
0.00117557
-0.00926309
0.00121326
-0.00968749
0.00124909
-0.0101439
0.00128344
-0.010634
0.0013166
-0.0111594
-0.0117194
0.00134742
8.82255e-05
-0.000697975
0.000305999
-0.00274487
0.000553428
-0.00486206
0.000750195
-0.00644134
0.000881227
-0.00744266
0.00096239
-0.00806507
0.00101485
-0.00850958
0.0010535
-0.00890026
0.00108597
-0.00929555
0.00111531
-0.00971683
0.00114257
-0.0101711
0.00116802
-0.0106595
0.00119182
-0.0111832
-0.0117405
0.00121293
9.2452e-05
-0.000790427
0.000308901
-0.00296132
0.000542617
-0.00509577
0.000720475
-0.0066192
0.00083381
-0.00755599
0.000900936
-0.00813219
0.000942608
-0.00855125
0.000972311
-0.00892996
0.000996476
-0.00931972
0.00101754
-0.0097379
0.00103625
-0.0101898
0.00105281
-0.010676
0.00106728
-0.0111976
-0.0117519
0.00107871
9.61804e-05
-0.000886607
0.000309596
-0.00317474
0.000528648
-0.00531482
0.000687952
-0.0067785
0.000784561
-0.0076526
0.000838607
-0.00818624
0.000870134
-0.00858278
0.000891207
-0.00895103
0.000907203
-0.00933571
0.000920024
-0.00975072
0.000930212
-0.0102
0.000937898
-0.0106837
0.00094308
-0.0112028
-0.0117537
0.000944889
9.934e-05
-0.000985947
0.000308116
-0.00338351
0.000511828
-0.00551854
0.000653046
-0.00691972
0.000733871
-0.00773343
0.000775694
-0.00822806
0.000797612
-0.0086047
0.000810308
-0.00896373
0.00081823
-0.00934363
0.000822845
-0.00975533
0.000824534
-0.0102017
0.000823377
-0.0106825
0.000819306
-0.0111987
-0.011746
0.000811561
0.000101871
-0.00108782
0.000304531
-0.00358617
0.00049246
-0.00570646
0.000616145
-0.00704341
0.000682091
-0.00779937
0.000712446
-0.00825842
0.000725202
-0.00861746
0.000729722
-0.00896825
0.000729646
-0.00934356
0.00072609
-0.00975178
0.000719309
-0.0101949
0.000709341
-0.0106726
0.000696071
-0.0111855
-0.0117287
0.000678833
0.000103724
-0.00119154
0.000298941
-0.00378139
0.000470842
-0.00587836
0.000577603
-0.00715017
0.000629517
-0.00785129
0.00064907
-0.00827797
0.000653034
-0.00862142
0.000649536
-0.00896475
0.000641523
-0.00933554
0.000629829
-0.00974008
0.000614608
-0.0101797
0.000595864
-0.0106538
0.000573467
-0.0111631
-0.011702
0.000546787
0.000104863
-0.0012964
0.000291468
-0.003968
0.00044726
-0.00603416
0.000537739
-0.00724065
0.000576411
-0.00788996
0.000585743
-0.0082873
0.000581218
-0.00861689
0.000569828
-0.00895336
0.000553932
-0.00931965
0.000534135
-0.00972029
0.000510508
-0.0101561
0.000483024
-0.0106263
0.000451575
-0.0111316
-0.011666
0.000415525
0.000105264
-0.00140167
0.000282249
-0.00414498
0.000421985
-0.00617389
0.00049684
-0.0073155
0.000522999
-0.00791612
0.000522612
-0.00828692
0.000509851
-0.00860413
0.000490672
-0.00893418
0.00046694
-0.00929591
0.000439079
-0.00969242
0.000407088
-0.0101241
0.000370904
-0.0105902
0.000330441
-0.0110912
-0.0116207
0.000285128
0.000104917
-0.00150658
0.000271432
-0.00431149
0.000395273
-0.00629773
0.000455161
-0.00737539
0.000469475
-0.00793043
0.000459804
-0.00827725
0.000439014
-0.00858334
0.000412134
-0.0089073
0.000380612
-0.00926439
0.000344728
-0.00965654
0.000304423
-0.0100838
0.000259619
-0.0105453
0.000210139
-0.0110417
-0.011566
0.000155498
0.000103823
-0.00161041
0.000259178
-0.00446685
0.000367361
-0.00640592
0.000412931
-0.00742096
0.000416006
-0.00793351
0.000397427
-0.00825867
0.000368781
-0.0085547
0.000334273
-0.00887279
0.000295009
-0.00922513
0.000251148
-0.00961268
0.000202581
-0.0100352
0.000149269
-0.010492
9.09653e-05
-0.0109834
-0.011501
2.58868e-05
0.000101997
-0.0017124
0.000245654
-0.00461051
0.00033847
-0.00649873
0.000370351
-0.00745284
0.000362736
-0.00792589
0.000335572
-0.0082315
0.000299216
-0.00851834
0.000257149
-0.00883073
0.000210191
-0.00917817
0.000158399
-0.00956089
0.000101631
-0.00997845
3.9668e-05
-0.0104301
-2.67282e-05
-0.010917
-0.0114269
-0.000100766
9.94645e-05
-0.00181187
0.000231013
-0.00474206
0.000308802
-0.00657652
0.000327597
-0.00747163
0.000309789
-0.00790809
0.000274319
-0.00819603
0.000230376
-0.0084744
0.000180814
-0.00878117
0.000126214
-0.00912357
6.65294e-05
-0.00950121
1.45523e-06
-0.00991338
-6.85795e-05
-0.01036
-0.000144362
-0.0108412
-0.0113449
-0.000226404
9.62599e-05
-0.00190813
0.000215401
-0.0048612
0.000278539
-0.00663966
0.000284825
-0.00747792
0.00025727
-0.00788053
0.000213735
-0.0081525
0.000162315
-0.00842298
0.000105317
-0.00872417
4.30931e-05
-0.00906135
-2.43854e-05
-0.00943373
-9.72251e-05
-0.00984054
-0.00017568
-0.0102816
-0.000260283
-0.0107566
-0.0112542
-0.000350948
9.24256e-05
-0.00200055
0.000198963
-0.00496773
0.00024785
-0.00668855
0.000242174
-0.00747225
0.000205269
-0.00784363
0.000153879
-0.00810111
9.50756e-05
-0.00836417
3.0655e-05
-0.00865975
-3.90243e-05
-0.00899167
-0.000114148
-0.0093586
-0.000195015
-0.00975967
-0.000281726
-0.0101949
-0.000374838
-0.0106635
-0.0111549
-0.00047418
8.80099e-05
-0.00208856
0.000181833
-0.00506156
0.000216884
-0.0067236
0.000199763
-0.00745512
0.000153864
-0.00779773
9.48035e-05
-0.00804205
2.8643e-05
-0.00829801
-4.29699e-05
-0.00858813
-0.000120059
-0.00891458
-0.000202883
-0.00927578
-0.000291648
-0.00967091
-0.000386534
-0.0101
-0.00048802
-0.010562
-0.0110469
-0.000595973
8.30652e-05
-0.00217163
0.000164139
-0.00514263
0.000185777
-0.00674524
0.000157692
-0.00742704
0.000103122
-0.00774316
3.65267e-05
-0.00797545
-3.67586e-05
-0.00822473
-0.000115579
-0.00850931
-0.00020008
-0.00883008
-0.000290485
-0.00918537
-0.000387054
-0.00957434
-0.000490015
-0.00999703
-0.000599786
-0.0104522
-0.0109305
-0.000716235
7.76467e-05
-0.00224928
0.000146001
-0.00521099
0.000154651
-0.00675389
0.000116044
-0.00738843
5.30984e-05
-0.00768021
-2.08798e-05
-0.00790147
-0.000101154
-0.00814445
-0.000187185
-0.00842328
-0.000278997
-0.00873826
-0.000376892
-0.00908748
-0.000481169
-0.00947006
-0.0005921
-0.0098861
-0.000710069
-0.0103343
-0.0108057
-0.000834888
7.18111e-05
-0.00232109
0.000127531
-0.00526671
0.000123618
-0.00674997
7.48962e-05
-0.00733971
3.46216e-06
-0.00760878
-7.72465e-05
-0.00782077
-0.00016459
-0.00805711
-0.000257719
-0.00833015
-0.000356758
-0.00863923
-0.00046205
-0.00898219
-0.000573932
-0.00935818
-0.000692725
-0.0097673
-0.0008188
-0.0102082
-0.0106726
-0.000951862
6.5615e-05
-0.0023867
0.000108835
-0.00530993
9.2772e-05
-0.00673391
3.43699e-05
-0.00728131
-4.45198e-05
-0.00752989
-0.000132704
-0.00773258
-0.000227001
-0.00796281
-0.000327138
-0.00823002
-0.000433314
-0.00853305
-0.000545905
-0.0088696
-0.000665285
-0.0092388
-0.000791826
-0.00964076
-0.000925907
-0.0100741
-0.0105314
-0.00106709
5.91137e-05
-0.00244582
9.00146e-05
-0.00534083
6.2195e-05
-0.00670609
-5.52456e-06
-0.00721359
-9.20019e-05
-0.00744341
-0.000187184
-0.0076374
-0.000288345
-0.00786165
-0.0003954
-0.00812296
-0.000508619
-0.00841983
-0.000628407
-0.00874981
-0.000755171
-0.00911204
-0.000889343
-0.00950659
-0.00103133
-0.00993212
-0.0103822
-0.0011805
5.23598e-05
-0.00249818
7.11698e-05
-0.00535964
3.19639e-05
-0.00666689
-4.46976e-05
-0.00713693
-0.000138626
-0.00734948
-0.000240652
-0.00753537
-0.000348582
-0.00775372
-0.000462465
-0.00800908
-0.000582629
-0.00829967
-0.000709507
-0.00862293
-0.000843536
-0.00897801
-0.000985214
-0.00936491
-0.00113499
-0.00978235
-0.0102252
-0.00129203
4.54073e-05
-0.00254358
5.23995e-05
-0.00536663
2.17241e-06
-0.00661666
-8.31466e-05
-0.00705161
-0.000184325
-0.0072483
-0.000293079
-0.00742662
-0.000407681
-0.00763912
-0.000528295
-0.00788846
-0.000655302
-0.00817266
-0.000789159
-0.00848907
-0.000930329
-0.00883684
-0.00107938
-0.00921586
-0.00123683
-0.0096249
-0.0100604
-0.00140162
3.83205e-05
-0.0025819
3.38176e-05
-0.00536213
-2.71741e-05
-0.00655567
-0.000120827
-0.00695795
-0.000229066
-0.00714006
-0.000344437
-0.00731125
-0.000465609
-0.00751795
-0.000592855
-0.00776122
-0.000726597
-0.00803892
-0.000867317
-0.00834835
-0.0010155
-0.00868865
-0.00117179
-0.00905957
-0.00133679
-0.0094599
-0.00988798
-0.00150921
3.11669e-05
-0.00261307
1.56831e-05
-0.00534664
-5.58864e-05
-0.0064841
-0.000157717
-0.00685612
-0.00027283
-0.00702495
-0.000394699
-0.00718938
-0.000522336
-0.00739031
-0.000656107
-0.00762745
-0.000796475
-0.00789855
-0.000943938
-0.00820089
-0.001099
-0.00853359
-0.00126238
-0.00889619
-0.00143481
-0.00928748
-0.00970807
-0.00161472
2.39561e-05
-0.00263703
-9.74959e-07
-0.00532171
-8.39884e-05
-0.00640108
-0.000193809
-0.0067463
-0.000315599
-0.00690316
-0.000443839
-0.00706114
-0.000577833
-0.00725632
-0.000718019
-0.00748726
-0.000864896
-0.00775167
-0.00101898
-0.00804681
-0.00118079
-0.00837178
-0.00135112
-0.00872586
-0.00153083
-0.00910777
-0.00952079
-0.0017181
1.65825e-05
-0.00265361
-2.13424e-05
-0.00528379
-0.0001117
-0.00631073
-0.000229033
-0.00662897
-0.000357346
-0.00677485
-0.000491835
-0.00692665
-0.000632071
-0.00711608
-0.000778556
-0.00734078
-0.000931824
-0.0075984
-0.00109241
-0.00788622
-0.00126083
-0.00820336
-0.00143797
-0.00854872
-0.00162482
-0.00892091
-0.00932642
-0.00181919
9.21608e-06
-0.00266283
-3.97579e-05
-0.00523481
-0.000138813
-0.00621167
-0.000263366
-0.00650442
-0.000398048
-0.00664017
-0.000538662
-0.00678604
-0.000685022
-0.00696972
-0.000837686
-0.00718811
-0.000997222
-0.00743887
-0.00116417
-0.00771927
-0.00133907
-0.00802845
-0.00152288
-0.00836491
-0.0017167
-0.00872709
-0.00912524
-0.00191789
2.06137e-06
-0.00266489
-5.75623e-05
-0.00517519
-0.000165268
-0.00610396
-0.000296794
-0.00637289
-0.000437683
-0.00649928
-0.000584297
-0.00663942
-0.000736658
-0.00681736
-0.000895378
-0.00702939
-0.00106105
-0.00727319
-0.00123424
-0.00754609
-0.00141549
-0.0078472
-0.00160583
-0.00817457
-0.00180641
-0.00852651
-0.00891719
-0.00201445
-5.47571e-06
-0.00265941
-7.49051e-05
-0.00510576
-0.000191023
-0.00598785
-0.000329297
-0.00623462
-0.000476234
-0.00635234
-0.000628719
-0.00648694
-0.000786954
-0.00665913
-0.000951599
-0.00686475
-0.00112328
-0.00710151
-0.00130257
-0.0073668
-0.00149006
-0.00765971
-0.00168684
-0.00797779
-0.00189393
-0.00831943
-0.00870249
-0.00210863
-1.28749e-05
-0.00264654
-9.18119e-05
-0.00502682
-0.000216051
-0.00586361
-0.000360857
-0.00608981
-0.000513685
-0.00619951
-0.000671907
-0.00632871
-0.000835883
-0.00649515
-0.00100632
-0.00669431
-0.00118387
-0.00692396
-0.00136913
-0.00718155
-0.0015628
-0.00746604
-0.001766
-0.00777459
-0.00197893
-0.0081065
-0.00848289
-0.00219853
-2.00709e-05
-0.00262647
-0.000108274
-0.00493862
-0.000240333
-0.00573155
-0.000391459
-0.00593869
-0.00055002
-0.00604095
-0.000713841
-0.00616489
-0.00088342
-0.00632557
-0.00105951
-0.00651823
-0.00124278
-0.00674069
-0.00143388
-0.00699045
-0.00163364
-0.00726628
-0.00184315
-0.00756508
-0.00206259
-0.00788706
-0.00826208
-0.0022834
-2.71064e-05
-0.00259936
-0.000124279
-0.00484145
-0.000263854
-0.00559197
-0.000421089
-0.00578145
-0.000585224
-0.00587681
-0.000754503
-0.00599561
-0.000929543
-0.00615053
-0.00111113
-0.00633664
-0.00129998
-0.00655184
-0.00149678
-0.00679365
-0.00170245
-0.00706061
-0.00191749
-0.00735004
-0.00213904
-0.00766551
-0.00801856
-0.00238256
-3.39804e-05
-0.00256538
-0.000139809
-0.00473562
-0.000286602
-0.00544518
-0.000449735
-0.00561832
-0.000619283
-0.00570727
-0.000793872
-0.00582103
-0.000974225
-0.00597018
-0.00116117
-0.0061497
-0.00135544
-0.00635756
-0.00155779
-0.00659129
-0.00176908
-0.00684933
-0.00198932
-0.00712979
-0.0022181
-0.00743672
-0.00777041
-0.00246625
-4.06831e-05
-0.0025247
-0.000154851
-0.00462145
-0.000308565
-0.00529147
-0.000477388
-0.0054495
-0.000652185
-0.00553247
-0.000831931
-0.00564128
-0.00101744
-0.00578466
-0.00120958
-0.00595756
-0.00140913
-0.00615802
-0.00161687
-0.00638355
-0.0018336
-0.0066326
-0.00205946
-0.00690394
-0.00229544
-0.00720074
-0.00751831
-0.00254755
-4.72026e-05
-0.00247749
-0.00016939
-0.00449926
-0.000329734
-0.00513112
-0.000504037
-0.00527519
-0.000683918
-0.00535259