/*--------------------------------*- C++ -*----------------------------------*\
  =========                 |
  \\      /  F ield         | OpenFOAM: The Open Source CFD Toolbox
   \\    /   O peration     | Website:  https://openfoam.org
    \\  /    A nd           | Version:  7
     \\/     M anipulation  |
\*---------------------------------------------------------------------------*/
FoamFile
{
    version     2.0;
    format      ascii;
    class       volVectorField;
    location    "25";
    object      U;
}
// * * * * * * * * * * * * * * * * * * * * * * * * * * * * * * * * * * * * * //

dimensions      [0 1 -1 0 0 0 0];

internalField   nonuniform List<vector> 
16660
(
(-0.00284224 0.00129899 4.77756e-22)
(-0.0152933 0.00259468 1.95634e-21)
(-0.0351381 0.00317377 2.65043e-21)
(-0.0552342 0.00335073 -6.82148e-22)
(-0.0753349 0.00330546 -7.30503e-22)
(-0.0940794 0.0031562 -1.6681e-23)
(-0.111418 0.00296353 1.22395e-21)
(-0.127252 0.00275629 2.67055e-22)
(-0.14169 0.00254668 1.61841e-21)
(-0.154747 0.00233037 1.99169e-22)
(-0.16663 0.00213408 1.34336e-21)
(-0.17711 0.00191101 1.37228e-21)
(-0.187184 0.00184728 -2.16455e-22)
(-0.19547 0.00164185 7.97893e-22)
(-0.00295931 0.00386025 3.75596e-22)
(-0.0154584 0.00773161 -7.60403e-21)
(-0.0352234 0.0094789 1.24245e-21)
(-0.055185 0.0100288 8.87641e-22)
(-0.0751085 0.00991427 3.79589e-21)
(-0.093646 0.00948855 -1.63922e-21)
(-0.11075 0.00893435 -1.52463e-21)
(-0.126319 0.00833942 -4.52283e-21)
(-0.140465 0.00774132 6.19945e-22)
(-0.153187 0.00712604 1.46928e-21)
(-0.164714 0.00657519 -2.34851e-21)
(-0.174733 0.0059364 -2.08207e-21)
(-0.184379 0.00578886 -2.18809e-21)
(-0.191877 0.00517952 -2.0937e-21)
(-0.0031911 0.00637949 -5.28194e-22)
(-0.015786 0.012797 1.05006e-20)
(-0.0353928 0.0157054 -1.90577e-21)
(-0.0550865 0.0166291 7.90383e-21)
(-0.0746563 0.0164489 4.56627e-21)
(-0.0927802 0.0157504 -4.46271e-22)
(-0.109414 0.0148382 1.97646e-22)
(-0.124455 0.0138588 4.48812e-21)
(-0.138014 0.0128757 -5.76771e-21)
(-0.150065 0.0118621 -1.43823e-21)
(-0.16088 0.0109605 -8.79619e-22)
(-0.169974 0.0098799 6.67972e-21)
(-0.178782 0.00966279 -2.95952e-21)
(-0.184706 0.00855648 -1.8361e-21)
(-0.00353364 0.00882973 -1.39852e-21)
(-0.016272 0.0177445 4.26946e-21)
(-0.035645 0.0218017 -2.03165e-21)
(-0.0549398 0.0231001 -3.51068e-21)
(-0.0739814 0.0228598 8.68552e-22)
(-0.0914862 0.0218946 8.97002e-21)
(-0.107416 0.0206298 -9.80012e-21)
(-0.121662 0.0192712 -1.1327e-20)
(-0.134342 0.0179093 -1.1115e-21)
(-0.145381 0.0164987 2.41459e-21)
(-0.155136 0.0152545 -4.30566e-21)
(-0.162825 0.0136898 -2.96859e-21)
(-0.170423 0.0134318 3.13631e-21)
(-0.173987 0.0116727 1.23798e-20)
(-0.00398117 0.0111856 -8.83872e-21)
(-0.0169103 0.0225295 1.505e-21)
(-0.0359781 0.0277175 -1.00078e-20)
(-0.0547467 0.029391 1.68739e-21)
(-0.0730883 0.0290977 -9.1782e-21)
(-0.0897701 0.0278735 2.97781e-21)
(-0.104761 0.0262637 7.7519e-21)
(-0.117946 0.024533 2.53956e-21)
(-0.129451 0.0228006 4.34602e-21)
(-0.139131 0.0209959 -5.6586e-21)
(-0.147486 0.0194239 8.31735e-21)
(-0.153271 0.017319 -1.08827e-20)
(-0.159336 0.01707 1.30391e-21)
(-0.159746 0.0144408 -1.09478e-20)
(-0.00452634 0.0134237 6.63975e-21)
(-0.0176932 0.0271099 -1.48652e-20)
(-0.0363893 0.0334042 1.11623e-20)
(-0.0545091 0.0354518 -6.77564e-21)
(-0.0719824 0.0351133 -5.71625e-21)
(-0.0876389 0.0336394 -8.92251e-21)
(-0.101457 0.0316935 -8.03791e-21)
(-0.113313 0.0295996 5.89097e-21)
(-0.123347 0.0275077 -1.54503e-21)
(-0.131309 0.0253136 9.39366e-21)
(-0.137932 0.0234377 -5.38477e-21)
(-0.141271 0.0207263 1.30822e-20)
(-0.145543 0.0205644 5.96649e-22)
(-0.141983 0.0167945 3.96666e-21)
(-0.0051605 0.0155235 1.73077e-21)
(-0.0186113 0.0314469 -4.86585e-22)
(-0.0368755 0.0388156 -1.29466e-20)
(-0.054229 0.0412337 5.34258e-21)
(-0.0706697 0.040858 7.41865e-21)
(-0.0851006 0.0391444 1.15769e-20)
(-0.0975117 0.0368723 6.12028e-21)
(-0.107767 0.0344253 1.61929e-21)
(-0.11603 0.0319871 -1.14565e-20)
(-0.121899 0.0294109 -1.52035e-21)
(-0.126468 0.0272655 -1.29036e-21)
(-0.12676 0.0238782 -1.87008e-20)
(-0.129033 0.0239144 1.50546e-21)
(-0.120634 0.0186994 -3.62637e-21)
(-0.005874 0.0174673 4.83735e-22)
(-0.019654 0.0355056 3.28839e-21)
(-0.0374325 0.0439081 1.83438e-21)
(-0.053908 0.0466897 9.16673e-21)
(-0.0691558 0.0462835 4.67658e-21)
(-0.0821625 0.0443402 -1.68921e-20)
(-0.0929323 0.0417524 5.89869e-21)
(-0.10131 0.0389634 2.38944e-21)
(-0.107497 0.0361935 1.07146e-21)
(-0.110872 0.0332461 6.89695e-21)
(-0.113074 0.0308746 5.32569e-21)
(-0.10963 0.0267506 1.51199e-20)
(-0.109749 0.0271246 1.03874e-20)
(-0.0955427 0.0201711 -8.10793e-21)
(-0.00665658 0.0192409 8.94259e-21)
(-0.0208096 0.0392552 -1.44808e-20)
(-0.0380553 0.0486415 -3.07142e-21)
(-0.0535468 0.0517745 -1.13035e-20)
(-0.0674454 0.0513422 -7.60995e-22)
(-0.0788303 0.0491787 1.81912e-21)
(-0.0877221 0.0462856 1.07834e-21)
(-0.0939387 0.0431666 -2.3624e-20)
(-0.0977361 0.0400802 2.52337e-20)
(-0.0981842 0.0367774 -1.19812e-21)
(-0.0977068 0.0342262 -1.97982e-21)
(-0.0897374 0.0293325 -1.11139e-20)
(-0.0875565 0.0301785 1.14091e-20)
(-0.0664312 0.0213206 -7.52276e-21)
(-0.00749771 0.0208338 1.83766e-20)
(-0.0220656 0.0426697 6.4162e-21)
(-0.0387375 0.0529792 -8.69093e-22)
(-0.0531445 0.0564449 -3.3029e-21)
(-0.0655411 0.0559882 2.11381e-20)
(-0.0751063 0.0536123 -6.2849e-21)
(-0.0818793 0.0504237 5.13816e-21)
(-0.0856397 0.046987 1.61665e-20)
(-0.0867231 0.0435984 -1.09498e-20)
(-0.0837697 0.0399632 -6.01017e-21)
(-0.0802922 0.037269 -3.88139e-21)
(-0.0669041 0.0316452 -1.94615e-20)
(-0.0622061 0.032946 -1.73801e-20)
(-0.0329278 0.0224353 6.61515e-21)
(-0.00838701 0.022239 -2.0609e-20)
(-0.0234089 0.0457278 1.84639e-20)
(-0.0394715 0.0568884 -1.44249e-20)
(-0.0526979 0.0606609 2.2691e-20)
(-0.0634414 0.0601766 -1.0127e-21)
(-0.0709869 0.0575943 1.95466e-20)
(-0.075393 0.0541189 5.82739e-21)
(-0.0763871 0.0503778 -1.27887e-20)
(-0.074413 0.0466995 -1.52902e-20)
(-0.0675362 0.0427672 -9.56422e-21)
(-0.0606917 0.0399203 3.06708e-23)
(-0.0409686 0.0338036 2.55671e-20)
(-0.0332727 0.035107 -9.08983e-21)
(0.00533279 0.023889 1.20733e-20)
(-0.0093146 0.0234535 6.70421e-21)
(-0.0248258 0.0484138 1.21005e-20)
(-0.0402479 0.0603411 1.66689e-20)
(-0.0522001 0.0643855 -3.36169e-20)
(-0.0611395 0.0638653 -2.49583e-20)
(-0.06646 0.0610797 -1.60989e-20)
(-0.0682392 0.0573249 -2.15093e-20)
(-0.0661349 0.0532944 1.31019e-20)
(-0.060731 0.049337 2.25758e-20)
(-0.0493717 0.0451799 2.22306e-20)
(-0.0386456 0.0420373 -1.78912e-20)
(-0.0117855 0.0359939 -1.52194e-20)
(-0.000368079 0.0367211 9.65867e-21)
(0.049248 0.0255487 4.91137e-21)
(-0.0102714 0.0244779 -2.00264e-20)
(-0.0263025 0.0507167 -1.89644e-20)
(-0.0410548 0.0633136 7.65889e-21)
(-0.0516396 0.0675855 -2.0111e-20)
(-0.0586207 0.0670149 1.14915e-20)
(-0.0615013 0.0640262 2.14658e-20)
(-0.0603754 0.0599985 1.12659e-20)
(-0.0548095 0.0556957 -8.35812e-21)
(-0.0455479 0.0514604 -1.33823e-20)
(-0.0291583 0.0472454 1.81256e-21)
(-0.0137924 0.0435297 8.93385e-21)
(0.0212087 0.0380423 1.83726e-20)
(0.0364894 0.038261 -2.57353e-22)
(0.100226 0.0273002 -1.21481e-20)
(-0.0112496 0.0253163 7.26536e-21)
(-0.0278247 0.0526309 -1.152e-20)
(-0.0418771 0.0657876 -1.726e-20)
(-0.0509985 0.070232 2.73276e-20)
(-0.0558594 0.0695901 -4.00882e-20)
(-0.0560696 0.0663955 -1.2363e-20)
(-0.0517334 0.0621013 -2.15342e-20)
(-0.0423049 0.0575476 1.76553e-20)
(-0.0286475 0.0530069 -2.23296e-20)
(-0.0066657 0.0489335 -2.0838e-20)
(0.0140766 0.0445145 4.08393e-21)
(0.058878 0.0397469 1.23943e-20)
(0.0776422 0.03976 -7.95026e-21)
(0.159294 0.0295072 -3.48389e-21)
(-0.0122425 0.0259758 1.73421e-20)
(-0.0293778 0.0541556 -4.28431e-21)
(-0.0426959 0.0677497 -7.72725e-21)
(-0.0502504 0.0723014 -9.5992e-21)
(-0.0528161 0.0715605 2.86868e-20)
(-0.0501023 0.0681552 3.12789e-21)
(-0.0422116 0.0636026 5.44211e-21)
(-0.0284795 0.0588284 -2.47237e-20)
(-0.00979374 0.0539893 4.70191e-21)
(0.0185572 0.0501543 -1.26517e-20)
(0.0453251 0.0450831 3.93095e-21)
(0.101899 0.0413734 -2.63948e-20)
(0.123788 0.0408588 2.58968e-21)
(0.227404 0.0325753 1.10209e-20)
(-0.0132451 0.0264662 -2.57901e-21)
(-0.0309465 0.0552946 -1.84285e-20)
(-0.0434873 0.069192 1.21962e-20)
(-0.0493586 0.0737756 -8.97896e-21)
(-0.0494334 0.0729024 1.19377e-20)
(-0.0435083 0.0692803 -3.33958e-21)
(-0.0316631 0.0644822 1.45073e-20)
(-0.0131054 0.0595258 1.26157e-20)
(0.0112969 0.0544581 3.87591e-20)
(0.0469805 0.0509558 2.90777e-20)
(0.0806331 0.0451648 1.47124e-20)
(0.150925 0.0433254 4.02945e-20)
(0.175808 0.0414021 6.76724e-21)
(0.305277 0.0368013 7.0834e-22)
(-0.0142535 0.0267994 1.71777e-20)
(-0.0325142 0.0560555 4.47872e-20)
(-0.0442211 0.070112 2.15186e-20)
(-0.0482732 0.0746431 2.98362e-20)
(-0.0456318 0.0735994 -3.06209e-20)
(-0.0361623 0.0697559 4.86357e-21)
(-0.0198934 0.0647339 5.72679e-21)
(0.00412189 0.0596435 2.8999e-20)
(0.0350642 0.0544268 -3.66134e-20)
(0.0791322 0.0515006 -1.51514e-20)
(0.120882 0.044787 -1.88647e-20)
(0.206564 0.0459666 -6.59331e-21)
(0.234859 0.0415686 -2.04336e-20)
(0.39303 0.0424109 2.57615e-20)
(-0.0152654 0.0269889 -1.94786e-20)
(-0.0340628 0.0564498 5.59381e-21)
(-0.0448592 0.0705128 1.902e-20)
(-0.0469285 0.0748997 1.11165e-21)
(-0.0413047 0.0736451 -4.12213e-21)
(-0.027896 0.0695799 -1.82311e-20)
(-0.00664507 0.0643706 -1.58143e-21)
(0.0235808 0.0592245 -8.07884e-21)
(0.0620717 0.0539522 4.46487e-20)
(0.115654 0.0519542 -4.46474e-21)
(0.167135 0.0441745 -1.83793e-22)
(0.269196 0.0495434 -2.13635e-20)
(0.302374 0.041907 3.06049e-21)
(0.489803 0.0495579 -2.14528e-20)
(-0.0162794 0.0270489 6.21534e-21)
(-0.0355715 0.0564917 -1.19623e-20)
(-0.0453543 0.0704029 -4.53985e-20)
(-0.0452399 0.074549 -2.0289e-20)
(-0.0363139 0.0730442 1.16271e-20)
(-0.0184922 0.0687659 2.33853e-21)
(0.00841272 0.0634274 1.98163e-20)
(0.0457436 0.0583442 -2.74475e-20)
(0.0929923 0.0531616 -2.27447e-20)
(0.157274 0.0524817 2.52433e-20)
(0.220571 0.0437926 4.20714e-21)
(0.338834 0.0541064 -7.52705e-21)
(0.379718 0.0433453 1.21824e-20)
(0.593449 0.0583208 2.54544e-20)
(-0.0172949 0.0269939 5.02757e-21)
(-0.0370163 0.0561972 1.85844e-21)
(-0.0456478 0.0697962 -3.74944e-21)
(-0.0431011 0.073604 2.03432e-20)
(-0.0304844 0.0718146 -1.57562e-21)
(-0.00767751 0.0673474 3.18135e-20)
(0.0256896 0.0619682 8.45638e-22)
(0.071182 0.0571161 2.09191e-20)
(0.128592 0.0522576 5.94302e-21)
(0.204766 0.053247 -1.64655e-20)
(0.282265 0.0443377 1.61455e-20)
(0.415098 0.0595253 5.18347e-20)
(0.46755 0.0469635 -1.77174e-20)
(0.700466 0.068682 -5.36432e-20)
(-0.0183114 0.0268375 3.79532e-21)
(-0.038368 0.0555838 1.96019e-21)
(-0.0456687 0.0687121 -4.71954e-21)
(-0.0403813 0.072087 -3.90928e-20)
(-0.0236005 0.0699895 -1.36887e-20)
(0.00488215 0.0653807 -1.59103e-20)
(0.0456757 0.060091 -5.82604e-21)
(0.100558 0.055699 -5.45781e-21)
(0.169683 0.0515244 2.20217e-22)
(0.258879 0.054427 1.06494e-20)
(0.352831 0.0466069 -1.63851e-20)
(0.497266 0.0656503 -6.50077e-21)
(0.565057 0.0535938 3.12464e-21)
(0.806343 0.0804571 6.60676e-20)
(-0.0193278 0.0265922 1.93271e-20)
(-0.0395915 0.0546688 1.74103e-21)
(-0.0453311 0.0671759 3.4571e-20)
(-0.0369219 0.0700304 2.35608e-20)
(-0.0154022 0.0676194 1.55354e-20)
(0.0195843 0.0629486 -1.41393e-20)
(0.0689365 0.057933 -1.9767e-20)
(0.134598 0.0543019 -4.4217e-21)
(0.217045 0.0513218 8.83973e-21)
(0.320243 0.0562624 -3.34155e-20)
(0.432029 0.0512479 -2.49716e-20)
(0.584284 0.0725122 -1.29727e-20)
(0.66945 0.0634685 1.10818e-20)
(0.906273 0.0932052 -7.24156e-20)
(-0.0203423 0.0262685 -2.56379e-20)
(-0.0406454 0.0534713 4.55807e-21)
(-0.0445318 0.0652161 -1.46905e-20)
(-0.0325354 0.0674776 -1.70587e-20)
(-0.00558333 0.0647738 -9.83964e-21)
(0.0368879 0.060164 -3.61161e-21)
(0.0960984 0.0556745 -9.11548e-21)
(0.174052 0.0531867 1.55083e-20)
(0.271308 0.0520544 -2.55533e-20)
(0.389188 0.0591154 1.6855e-20)
(0.518538 0.058528 1.21347e-20)
(0.674618 0.0803553 5.08198e-21)
(0.776122 0.0761256 2.1377e-20)
(0.996 0.106224 6.41619e-20)
(-0.0213509 0.0258749 -1.46981e-20)
(-0.0414819 0.0520109 -2.24776e-20)
(-0.0431492 0.062864 -1.78974e-20)
(-0.0270031 0.0644831 1.8661e-20)
(0.00620735 0.061543 3.74455e-21)
(0.0573062 0.0571723 3.74742e-22)
(0.127821 0.0535419 -1.65323e-20)
(0.219614 0.052667 -3.04372e-20)
(0.332816 0.0541212 1.79082e-20)
(0.46549 0.0634573 -9.10067e-21)
(0.610013 0.0682752 2.64434e-20)
(0.766052 0.0894356 -1.41702e-20)
(0.87952 0.0906039 -3.29304e-20)
(1.07249 0.118687 1.27624e-20)
(-0.0223465 0.0254172 2.19958e-20)
(-0.0420427 0.0503038 -1.08014e-20)
(-0.0410445 0.0601564 1.80379e-20)
(-0.0200756 0.0611137 -4.22211e-21)
(0.020363 0.0580386 6.76452e-21)
(0.0813913 0.0541539 -1.19134e-20)
(0.164756 0.0518068 2.04837e-20)
(0.271823 0.0531006 -2.69433e-21)
(0.401482 0.0578636 -1.92558e-20)
(0.548093 0.0697345 3.92084e-20)
(0.703381 0.0799981 -3.03827e-20)
(0.855688 0.0997558 3.01698e-20)
(0.974384 0.10578 -3.02166e-21)
(1.13425 0.129845 -8.72244e-20)
(-0.0233184 0.0248977 1.5061e-20)
(-0.0422583 0.0483633 1.86166e-20)
(-0.0380611 0.0571359 1.92013e-20)
(-0.0114747 0.0574481 1.06674e-20)
(0.0373115 0.0543951 2.18633e-20)
(0.109712 0.0513233 3.29141e-20)
(0.207483 0.050781 1.48366e-20)
(0.330934 0.0548672 6.58608e-21)
(0.476644 0.0635257 4.95467e-20)
(0.634994 0.0781755 -1.2269e-20)
(0.795275 0.0930501 -8.02032e-22)
(0.940332 0.110979 -3.34659e-20)
(1.05676 0.120666 2.5056e-20)
(1.18129 0.139122 -1.33038e-20)
(-0.024251 0.0243146 -1.44417e-20)
(-0.0420491 0.0462027 -1.14977e-20)
(-0.0340231 0.0538487 -3.36279e-20)
(-0.0008965 0.0535765 3.6142e-21)
(0.0575037 0.0507693 -1.13231e-20)
(0.142818 0.0489282 1.39481e-20)
(0.256433 0.0508037 -2.33349e-20)
(0.396781 0.0583252 1.88007e-21)
(0.556973 0.0712181 -3.78784e-21)
(0.723393 0.0886647 -1.9421e-20)
(0.882477 0.106737 1.0576e-20)
(1.01709 0.122578 3.8638e-20)
(1.12444 0.134534 6.02764e-21)
(1.21488 0.146062 7.84032e-20)
(-0.0251217 0.0236622 1.38557e-20)
(-0.0413255 0.0438356 -1.35372e-20)
(-0.028737 0.0503443 2.74479e-20)
(0.0119838 0.0496014 -3.30397e-20)
(0.0813976 0.0473407 -4.87867e-21)
(0.181199 0.0472455 3.24744e-21)
(0.311788 0.052219 3.7741e-20)
(0.46866 0.0637496 2.88823e-20)
(0.640479 0.0808787 -2.93648e-20)
(0.81012 0.100759 -9.06279e-21)
(0.962321 0.120395 -8.54905e-21)
(1.08387 0.134057 -6.79251e-20)
(1.17693 0.146763 4.98012e-20)
(1.23727 0.150109 -5.16767e-21)
(-0.0258995 0.022931 -2.12376e-21)
(-0.0399881 0.0412773 1.15852e-20)
(-0.0219946 0.0466763 -2.67476e-20)
(0.0275049 0.0456374 1.17278e-20)
(0.109437 0.0443108 7.4751e-21)
(0.225223 0.0465739 -4.26745e-20)
(0.373381 0.0553419 6.88901e-21)
(0.545271 0.0712669 -3.83694e-20)
(0.724676 0.0922473 3.24269e-20)
(0.892167 0.113811 1.05478e-20)
(1.03297 0.133481 1.18712e-20)
(1.13956 0.145027 6.04564e-20)
(1.21523 0.156552 -3.17374e-20)
(1.25269 0.151245 7.94684e-21)
(-0.0265532 0.022118 -6.06142e-21)
(-0.0379198 0.0385381 4.38055e-21)
(-0.0135744 0.0429018 -4.71185e-21)
(0.0460111 0.0418119 -7.34535e-21)
(0.142026 0.0419025 -9.64255e-21)
(0.275072 0.0472198 2.90065e-20)
(0.440604 0.0604118 -1.73576e-20)
(0.62477 0.080808 -2.33866e-21)
(0.806894 0.104885 -3.74642e-20)
(0.967134 0.127139 -1.42007e-21)
(1.09346 0.145647 -2.71772e-20)
(1.18399 0.155051 -4.71434e-20)
(1.2418 0.163297 9.20605e-22)
(1.27367 0.157211 -9.45933e-20)
(-0.0270516 0.0212183 -1.35434e-21)
(-0.0349921 0.0356243 -8.26935e-21)
(-0.00324372 0.0390856 -1.21022e-20)
(0.067841 0.0382663 1.35449e-20)
(0.179491 0.0403575 1.70188e-20)
(0.330665 0.0494739 1.49466e-20)
(0.512366 0.0675423 -1.26287e-20)
(0.704946 0.0921034 -1.1321e-20)
(0.884668 0.118251 -1.06343e-20)
(1.03347 0.140158 1.40935e-20)
(1.14364 0.156697 -1.13024e-20)
(1.21791 0.163628 1.66349e-20)
(1.26166 0.169057 -4.43805e-20)
(1.28527 0.161618 -3.85529e-21)
(-0.0273518 0.0202205 -3.10046e-21)
(-0.031073 0.0325502 2.53199e-21)
(0.009236 0.0352999 -8.3685e-21)
(0.0933146 0.035157 2.17087e-21)
(0.222045 0.0399319 -4.93311e-21)
(0.391592 0.0535766 -3.1003e-20)
(0.587133 0.0766836 -1.81733e-20)
(0.783493 0.104727 -4.89904e-21)
(0.956042 0.131798 2.8104e-20)
(1.09046 0.152451 -1.85107e-20)
(1.18397 0.166489 -7.99324e-21)
(1.24319 0.170932 2.03841e-20)
(1.27501 0.17377 3.61088e-21)
(1.29169 0.165282 1.14744e-19)
(-0.0274042 0.0191135 2.67488e-21)
(-0.0260233 0.0293349 -2.87083e-21)
(0.0241044 0.0316259 1.66315e-20)
(0.122717 0.0326581 1.06363e-21)
(0.269734 0.0408852 -1.70699e-20)
(0.457071 0.0596757 -2.48448e-21)
(0.663062 0.0876163 1.75896e-20)
(0.858299 0.118178 -4.43219e-21)
(1.01974 0.145064 2.19125e-20)
(1.13811 0.163759 1.08797e-21)
(1.21548 0.175037 1.70736e-20)
(1.26128 0.177094 1.10458e-20)
(1.28351 0.177683 6.60847e-20)
(1.29485 0.168301 -1.39345e-21)
(-0.0271549 0.0178893 4.41973e-21)
(-0.0196962 0.0260029 -1.77738e-21)
(0.0415972 0.0281557 -8.36832e-21)
(0.156278 0.0309621 -1.5252e-20)
(0.32239 0.0434604 2.20027e-20)
(0.525959 0.0677898 3.43853e-20)
(0.738205 0.0999855 1.69112e-20)
(0.927679 0.131962 2.30927e-20)
(1.07516 0.157704 -9.21561e-21)
(1.17696 0.173967 2.08579e-20)
(1.23937 0.182431 2.21314e-20)
(1.27368 0.182299 3.26801e-21)
(1.28836 0.180983 4.6096e-20)
(1.2954 0.170878 -1.12129e-19)
(-0.0265457 0.0165432 -8.80258e-21)
(-0.0119401 0.0225861 5.40889e-21)
(0.0619404 0.0249956 3.66592e-21)
(0.194147 0.03028 1.0734e-20)
(0.379589 0.047854 3.36165e-21)
(0.596828 0.0777928 -3.03896e-20)
(0.810734 0.113365 1.48733e-20)
(0.990479 0.145657 1.15673e-20)
(1.12226 0.169505 -1.09389e-20)
(1.20787 0.183069 -4.10031e-20)
(1.2569 0.188808 -1.23245e-20)
(1.28165 0.186738 3.19489e-20)
(1.2905 0.183829 -1.52947e-20)
(1.29435 0.17314 2.52583e-20)
(-0.0255149 0.0150744 2.60625e-20)
(-0.00260122 0.0191262 -7.46412e-21)
(0.0853418 0.0222687 3.28252e-22)
(0.236361 0.0308357 1.27121e-21)
(0.440627 0.0541813 -8.38807e-21)
(0.668099 0.0894316 -9.23981e-21)
(0.879116 0.127323 -1.44847e-21)
(1.04609 0.158942 1.44802e-20)
(1.16144 0.18036 1.22216e-20)
(1.23184 0.19113 -2.85053e-20)
(1.26927 0.194328 -1.80736e-20)
(1.28626 0.190585 -4.16105e-20)
(1.2907 0.186351 -1.14409e-19)
(1.29215 0.175212 7.24733e-20)
(-0.0239978 0.0134872 -2.30086e-20)
(0.00847398 0.0156765 1.22443e-20)
(0.111982 0.0201183 3.36152e-21)
(0.282812 0.032852 -4.00781e-21)
(0.504548 0.0624496 8.81308e-22)
(0.738206 0.10237 -4.3291e-21)
(0.942223 0.141478 -3.47071e-20)
(1.09435 0.171602 -2.72335e-20)
(1.19336 0.19025 -1.97758e-20)
(1.24994 0.198261 9.65702e-20)
(1.27753 0.199152 2.35796e-20)
(1.28836 0.193994 2.67142e-20)
(1.28952 0.188654 -4.3914e-21)
(1.28919 0.177167 9.24921e-21)
(-0.0219273 0.0117913 9.08359e-21)
(0.0214358 0.012304 -2.46193e-20)
(0.141999 0.0187102 -2.03792e-21)
(0.333218 0.0365284 -6.23165e-22)
(0.570202 0.0725511 4.89427e-21)
(0.805741 0.116243 4.91969e-22)
(0.999341 0.155521 -1.50502e-20)
(1.13546 0.183512 3.04212e-20)
(1.21882 0.199216 4.39367e-20)
(1.26316 0.204592 -3.94416e-20)
(1.28259 0.203429 -5.0384e-21)
(1.2886 0.197091 -5.8073e-20)
(1.28736 0.190818 2.08236e-20)
(1.2857 0.179063 -7.99251e-20)
(-0.0192356 0.0100026 -1.8867e-20)
(0.0364282 0.00909036 2.78386e-20)
(0.175474 0.0182321 -6.22143e-21)
(0.387105 0.0420122 6.74019e-22)
(0.636346 0.0842808 -1.89491e-21)
(0.869557 0.130704 -3.99526e-22)
(1.05014 0.169227 -1.58271e-20)
(1.16988 0.194622 -3.921e-20)
(1.23868 0.207336 -7.6957e-20)
(1.27241 0.210258 2.48041e-21)
(1.28519 0.207295 -3.28344e-21)
(1.28749 0.199975 7.87468e-20)
(1.2845 0.192901 5.28996e-20)
(1.28186 0.180939 4.09387e-20)
(-0.0158543 0.00814324 1.54709e-20)
(0.0535844 0.00613411 1.15827e-20)
(0.212409 0.0188888 1.09533e-20)
(0.44382 0.0493735 2.9097e-21)
(0.701751 0.0973726 -1.74452e-22)
(0.928813 0.145454 -4.06058e-21)
(1.09459 0.182446 1.97072e-20)
(1.19818 0.204936 -3.22891e-20)
(1.25377 0.214713 8.80966e-21)
(1.27847 0.215391 5.09374e-20)
(1.28592 0.210861 -3.1992e-20)
(1.2854 0.202726 3.6453e-20)
(1.28115 0.194946 -6.428e-20)
(1.27776 0.182818 -5.40084e-20)
(-0.0117162 0.00624185 -1.24993e-21)
(0.0730221 0.00355184 -1.34809e-20)
(0.252709 0.0208905 -1.46706e-20)
(0.502555 0.0585929 -1.00341e-22)
(0.765299 0.11154 -2.52116e-21)
(0.982971 0.160253 1.71059e-21)
(1.1329 0.195088 1.01304e-20)
(1.22104 0.214497 -1.59532e-20)
(1.26487 0.221454 -7.39128e-20)
(1.282 0.220108 -8.2438e-20)
(1.28523 0.214221 3.5903e-20)
(1.2826 0.2054 -2.52064e-20)
(1.27744 0.196983 3.16075e-20)
(1.27347 0.184717 6.09749e-20)
(-0.00675576 0.00433338 -1.35111e-20)
(0.0948365 0.00147952 -2.57968e-20)
(0.296164 0.0244346 2.04981e-20)
(0.562409 0.0695673 -1.68828e-21)
(0.826051 0.126507 -1.08301e-21)
(1.03176 0.174921 -9.67366e-22)
(1.16545 0.207118 -1.85999e-21)
(1.23913 0.22337 4.67019e-20)
(1.27266 0.227671 -2.25457e-20)
(1.28356 0.224515 -5.44012e-20)
(1.28348 0.21745 6.93112e-20)
(1.27927 0.20804 -5.85781e-20)
(1.27346 0.199032 -3.28627e-20)
(1.26902 0.186644 -1.49919e-20)
(-0.000910289 0.0024592 1.9489e-21)
(0.119092 7.25681e-05 1.27924e-20)
(0.342443 0.0296836 1.99581e-20)
(0.622452 0.0821309 -1.6752e-21)
(0.883278 0.142032 -5.82755e-22)
(1.07513 0.189329 -4.61344e-21)
(1.19267 0.218532 -2.35361e-20)
(1.2531 0.231636 -3.82427e-20)
(1.27776 0.233467 6.11625e-20)
(1.28357 0.228699 6.68435e-20)
(1.28094 0.220605 9.0178e-20)
(1.27554 0.210674 4.95264e-20)
(1.26925 0.201105 -2.95254e-20)
(1.26444 0.188605 -6.05017e-20)
(0.00587925 0.000667279 4.01348e-21)
(0.145813 -0.00049586 6.39784e-21)
(0.391101 0.0367463 -4.88493e-20)
(0.681786 0.0960835 1.00015e-20)
(0.936463 0.15791 -2.2388e-21)
(1.11319 0.203393 3.24571e-21)
(1.2151 0.229357 1.34385e-20)
(1.26356 0.239381 1.32039e-20)
(1.28067 0.238937 4.87347e-20)
(1.28237 0.232731 -1.10824e-19)
(1.27778 0.223727 -2.04306e-20)
(1.2715 0.213321 -5.2324e-20)
(1.26486 0.203208 7.38713e-20)
(1.25974 0.1906 -1.76774e-20)
(0.0136673 -0.000987328 7.47491e-21)
(0.174973 -3.95838e-05 -1.20777e-20)
(0.441594 0.0456664 1.79361e-20)
(0.739599 0.111215 -9.74257e-21)
(0.985284 0.173978 -3.74857e-21)
(1.14617 0.217065 6.81867e-21)
(1.23323 0.239636 2.52832e-20)
(1.27105 0.24669 -2.17915e-20)
(1.28182 0.244162 -1.75147e-20)
(1.28024 0.23667 6.01487e-20)
(1.27414 0.226849 -7.8146e-21)
(1.26721 0.215992 4.24987e-20)
(1.26031 0.205346 -3.60237e-20)
(1.25493 0.192628 6.14846e-20)
(0.0225022 -0.00244194 -3.9621e-20)
(0.206483 0.00163239 2.22728e-20)
(0.493312 0.0564228 -1.47057e-20)
(0.795194 0.127326 1.83847e-21)
(1.02958 0.19011 4.62474e-21)
(1.1744 0.230324 -5.24228e-21)
(1.24758 0.249423 -4.38979e-20)
(1.27605 0.253644 2.92655e-20)
(1.28154 0.249212 -7.64254e-21)
(1.27736 0.240559 -7.28846e-20)
(1.27013 0.229988 3.91524e-20)
(1.2627 0.218693 6.27586e-21)
(1.2556 0.207518 3.24215e-20)
(1.25 0.194687 -1.02531e-20)
(0.0324249 -0.0036257 3.60408e-20)
(0.240193 0.0047045 6.67405e-21)
(0.54561 0.0689396 8.60719e-21)
(0.848012 0.144235 -6.79647e-21)
(1.06934 0.206208 -1.78439e-21)
(1.19821 0.243168 7.0103e-21)
(1.25863 0.258777 -1.29678e-20)
(1.27897 0.260317 -3.18993e-20)
(1.2801 0.254145 2.33768e-20)
(1.27388 0.24443 3.37818e-20)
(1.26579 0.233159 -4.27275e-20)
(1.25799 0.221426 -2.57467e-20)
(1.25074 0.209723 1.01734e-19)
(1.24496 0.196772 6.21897e-20)
(0.0434659 -0.00445947 1.99398e-20)
(0.275884 0.00934174 -2.84339e-20)
(0.597841 0.0831015 3.0413e-20)
(0.897626 0.161783 5.15159e-21)
(1.10462 0.222201 -1.13733e-21)
(1.21799 0.25561 5.38312e-21)
(1.26679 0.267759 3.33096e-20)
(1.28015 0.266775 4.06993e-20)
(1.27773 0.259004 -5.72005e-20)
(1.26992 0.248305 4.09732e-20)
(1.26118 0.236368 -3.76633e-20)
(1.25309 0.224188 5.67282e-20)
(1.24574 0.211957 -6.58104e-20)
(1.2398 0.198877 2.51957e-20)
(0.0556427 -0.00485626 -3.94502e-20)
(0.313276 0.0156775 -4.46685e-20)
(0.649388 0.0987694 4.30359e-21)
(0.943738 0.179835 4.74565e-21)
(1.13558 0.238037 3.33589e-21)
(1.2341 0.267674 3.303e-21)
(1.27246 0.276426 6.20273e-21)
(1.27987 0.273072 -4.56877e-20)
(1.27458 0.263825 -6.59899e-21)
(1.26554 0.2522 2.83029e-20)
(1.25631 0.239615 3.2453e-20)
(1.24801 0.226975 -2.04774e-20)
(1.24059 0.214215 -8.59039e-20)
(1.23452 0.200998 -5.55759e-20)
(0.0689557 -0.00472269 -1.56021e-21)
(0.352034 0.0238045 5.0955e-20)
(0.69968 0.115793 1.98213e-20)
(0.986157 0.198275 -1.30198e-20)
(1.16241 0.253679 2.11464e-21)
(1.24692 0.279386 -4.69025e-21)
(1.27599 0.284833 -1.01171e-20)
(1.27838 0.279254 3.98091e-20)
(1.27078 0.268632 2.72326e-20)
(1.2608 0.25612 -2.94939e-20)
(1.25121 0.242898 -4.68289e-21)
(1.24276 0.229782 3.21738e-20)
(1.23529 0.216493 4.6055e-20)
(1.22912 0.203126 1.51969e-20)
(0.0833852 -0.0039614 1.06632e-20)
(0.391783 0.0337709 -3.89315e-21)
(0.748216 0.134021 -3.72893e-20)
(1.02478 0.217005 -8.77534e-21)
(1.18535 0.269102 -5.35915e-21)
(1.25678 0.290779 -4.67789e-21)
(1.27765 0.293025 -4.71266e-21)
(1.27585 0.285356 -1.84474e-20)
(1.26643 0.27344 1.24776e-20)
(1.25573 0.260069 -2.34629e-20)
(1.24589 0.246211 1.35476e-20)
(1.23732 0.2326 -1.65107e-20)
(1.22984 0.218782 1.23208e-21)
(1.22358 0.205254 3.96843e-20)
(0.0988887 -0.0024744 2.14651e-20)
(0.432124 0.0455806 -3.17353e-20)
(0.794565 0.153303 2.75461e-21)
(1.05959 0.235938 1.24962e-20)
(1.20464 0.28429 3.45596e-21)
(1.264 0.301884 9.46204e-21)
(1.27771 0.301045 -1.40964e-20)
(1.27244 0.291406 -5.07609e-21)
(1.26158 0.278258 1.64068e-20)
(1.25035 0.264043 2.07662e-20)
(1.24033 0.249546 -3.36451e-20)
(1.2317 0.235421 -4.11484e-20)
(1.22423 0.221076 1.48167e-20)
(1.2179 0.207373 -4.17896e-20)
(0.115399 -0.000167245 1.99939e-20)
(0.472641 0.0591979 1.1042e-20)
(0.838374 0.173496 2.1493e-20)
(1.09062 0.254998 -4.99482e-21)
(1.22054 0.299232 -1.09855e-21)
(1.26885 0.312727 -6.45078e-21)
(1.27637 0.308924 1.58907e-20)
(1.26825 0.297419 2.84962e-20)
(1.25629 0.283088 -2.72651e-20)
(1.24468 0.268036 2.56628e-20)
(1.23455 0.252893 4.71724e-20)
(1.22589 0.238236 4.63565e-20)
(1.21846 0.223366 -3.85661e-20)
(1.21209 0.209474 9.47804e-21)
(0.132825 0.00304664 -2.54857e-20)
(0.512921 0.0745538 9.58615e-21)
(0.879364 0.194462 -1.54285e-20)
(1.11793 0.274116 -2.19005e-21)
(1.23329 0.31392 1.57376e-21)
(1.27158 0.323336 -5.70049e-22)
(1.2738 0.316688 7.35177e-22)
(1.26339 0.303408 -1.3603e-20)
(1.25059 0.287927 1.98351e-20)
(1.23872 0.272038 -2.54673e-20)
(1.22854 0.256241 -2.66382e-20)
(1.21989 0.241034 -3.65205e-20)
(1.21253 0.225643 8.85824e-21)
(1.20614 0.211547 1.10495e-20)
(0.151051 0.00724172 1.42819e-21)
(0.552564 0.0915525 6.55105e-21)
(0.917326 0.216071 -9.71962e-21)
(1.14164 0.293228 -1.49115e-21)
(1.24312 0.328348 -2.69753e-22)
(1.27243 0.333729 1.01088e-21)
(1.27014 0.324353 3.37785e-21)
(1.2579 0.309373 1.11422e-20)
(1.24449 0.292767 -9.37262e-21)
(1.23247 0.276038 -1.41816e-20)
(1.2223 0.259576 3.16633e-21)
(1.2137 0.243805 1.85983e-21)
(1.20644 0.227896 3.29615e-20)
(1.20005 0.213583 -1.807e-20)
(0.169941 0.0124768 1.32702e-21)
(0.59119 0.110078 -2.71042e-21)
(0.952111 0.2382 5.41909e-21)
(1.16186 0.312274 2.02518e-21)
(1.25028 0.342512 -1.5701e-22)
(1.27158 0.343923 7.20996e-23)
(1.26552 0.331929 -2.5604e-21)
(1.25185 0.315314 -5.70295e-22)
(1.23802 0.297596 1.54682e-21)
(1.22594 0.280022 9.64782e-21)
(1.21582 0.262885 3.30957e-22)
(1.20731 0.246536 8.61783e-22)
(1.20018 0.230115 -1.28226e-20)
(1.19381 0.21557 -7.47453e-21)
(0.189342 0.0187926 1.18386e-21)
(0.628446 0.129999 -2.32533e-21)
(0.983626 0.26073 5.08139e-21)
(1.17875 0.331196 1.83474e-21)
(1.25495 0.356405 -7.61374e-23)
(1.26919 0.353926 5.65669e-23)
(1.26001 0.339418 -2.59343e-21)
(1.24527 0.32122 -1.07138e-21)
(1.23119 0.302401 2.04642e-21)
(1.21913 0.283974 1.00852e-20)
(1.20911 0.266153 -7.03179e-23)
(1.20073 0.249215 -4.09681e-23)
(1.19375 0.232289 -1.28554e-20)
(1.18743 0.217497 -7.00801e-21)
(0.209087 0.0262103 -2.69432e-22)
(0.664015 0.151172 7.25618e-21)
(1.01182 0.283548 -9.23514e-21)
(1.19245 0.349939 -1.38586e-21)
(1.25735 0.370018 4.30655e-22)
(1.26542 0.363743 2.57685e-21)
(1.25371 0.346817 5.02286e-21)
(1.23819 0.327079 1.55004e-20)
(1.22399 0.307164 -1.29904e-20)
(1.21202 0.287877 -2.05592e-20)
(1.20215 0.269365 8.83707e-21)
(1.19394 0.25183 1.40369e-21)
(1.18716 0.234405 2.87656e-20)
(1.18092 0.219353 -1.49452e-20)
(0.228996 0.0347317 -3.05126e-20)
(0.697617 0.173445 1.28708e-20)
(1.03668 0.306544 -1.8518e-20)
(1.20312 0.368448 -8.47886e-22)
(1.25764 0.38334 -5.43669e-21)
(1.26039 0.373372 2.0518e-21)
(1.24666 0.354117 -6.98971e-22)
(1.23062 0.332874 -1.67411e-20)
(1.21643 0.311866 2.16568e-20)
(1.20462 0.291714 -3.13543e-20)
(1.19495 0.272504 -3.71671e-20)
(1.18695 0.254367 -4.0549e-20)
(1.1804 0.236449 1.7833e-20)
(1.17427 0.221129 2.2017e-20)
(0.248886 0.0443396 1.73798e-20)
(0.729007 0.196661 1.47032e-20)
(1.05823 0.329614 2.32196e-20)
(1.2109 0.386672 -1.54593e-21)
(1.25599 0.396356 5.46675e-21)
(1.25419 0.382804 -1.92999e-20)
(1.2389 0.361303 3.12203e-20)
(1.22258 0.338586 4.75133e-20)
(1.20851 0.316486 -4.5945e-20)
(1.19693 0.295465 3.58011e-20)
(1.18751 0.275553 6.66071e-20)
(1.17976 0.256812 6.7402e-20)
(1.17347 0.238406 -5.23013e-20)
(1.1675 0.222811 4.02009e-21)
(0.26857 0.0549997 2.23951e-20)
(0.757983 0.220657 -3.715e-20)
(1.07651 0.352652 -1.32407e-22)
(1.21595 0.404557 8.35489e-21)
(1.25253 0.409049 -1.35278e-20)
(1.24692 0.392027 1.82003e-20)
(1.23049 0.368355 -1.96107e-20)
(1.21407 0.344191 -1.43708e-20)
(1.20022 0.321002 2.97652e-20)
(1.18894 0.29911 3.46801e-20)
(1.17982 0.278496 -4.43081e-20)
(1.17236 0.25915 -6.18495e-20)
(1.16637 0.24026 2.99834e-20)
(1.16059 0.224385 -5.42793e-20)
(0.287861 0.0666623 1.88362e-20)
(0.784379 0.245269 -6.46287e-21)
(1.09158 0.375556 -3.93014e-20)
(1.21842 0.422053 -5.12062e-21)
(1.24741 0.421398 2.6369e-20)
(1.23864 0.401023 -1.58334e-20)
(1.22144 0.375251 -1.42292e-20)
(1.20511 0.349664 -2.58416e-20)
(1.19158 0.32539 -3.79286e-21)
(1.18066 0.302629 -4.86462e-20)
(1.17189 0.281317 2.58165e-20)
(1.16477 0.261368 3.02685e-22)
(1.15911 0.241999 -4.45407e-21)
(1.15351 0.225831 4.37808e-20)
(0.306578 0.0792638 -1.26366e-21)
(0.808066 0.270332 8.58538e-20)
(1.10352 0.398227 1.74323e-20)
(1.21846 0.439108 -7.12258e-22)
(1.24073 0.433377 -5.88361e-21)
(1.22943 0.40977 -3.39947e-20)
(1.21178 0.381965 -1.92359e-20)
(1.1957 0.354979 9.34224e-20)
(1.18259 0.329626 8.55855e-20)
(1.17208 0.306001 -1.09999e-19)
(1.16371 0.283996 9.91696e-21)
(1.15697 0.263449 5.36668e-20)
(1.1517 0.243628 7.55086e-20)
(1.14622 0.227156 3.0154e-20)
(0.324545 0.0927289 -5.14405e-20)
(0.828952 0.295683 -8.10543e-20)