# Forces      
# CofR        : (0.000000e+00 0.000000e+00 0.000000e+00)
# Time        forces(pressure viscous porous)	moments(pressure viscous porous)
0.0025        	((3.095988e+01 -2.055849e-03 -2.533283e-19) (1.476064e-01 -3.700917e-06 4.290181e-21) (0.000000e+00 0.000000e+00 0.000000e+00)) ((-1.228323e-18 -7.047674e-18 -8.397295e-13) (-2.089639e-20 -1.954115e-20 7.464412e-08) (0.000000e+00 0.000000e+00 0.000000e+00))
0.005         	((5.758216e-01 1.664177e-03 -1.445243e-21) (1.370726e-01 -7.475532e-07 9.889847e-23) (0.000000e+00 0.000000e+00 0.000000e+00)) ((-2.021226e-20 -1.313764e-19 6.784962e-13) (-1.045360e-21 -2.850504e-20 6.741288e-08) (0.000000e+00 0.000000e+00 0.000000e+00))
0.0075        	((2.464014e-01 -6.693104e-05 -3.800016e-21) (1.319811e-01 -8.048908e-07 1.340160e-22) (0.000000e+00 0.000000e+00 0.000000e+00)) ((-6.900025e-21 -5.498348e-20 8.395156e-15) (-8.874784e-22 -2.756275e-20 6.358647e-08) (0.000000e+00 0.000000e+00 0.000000e+00))
0.01          	((1.529092e-01 -1.621864e-05 -3.716350e-21) (1.281819e-01 -8.241701e-07 1.331091e-22) (0.000000e+00 0.000000e+00 0.000000e+00)) ((-3.295494e-21 -3.346037e-20 -1.161152e-14) (-7.955924e-22 -2.680027e-20 6.252634e-08) (0.000000e+00 0.000000e+00 0.000000e+00))
0.0125        	((1.294749e-01 2.116800e-06 -3.574486e-21) (1.248867e-01 -8.080175e-07 1.315223e-22) (0.000000e+00 0.000000e+00 0.000000e+00)) ((-2.364356e-21 -2.811330e-20 -1.255770e-14) (-7.471182e-22 -2.611733e-20 6.130772e-08) (0.000000e+00 0.000000e+00 0.000000e+00))
0.015         	((1.208458e-01 1.046953e-05 -3.435084e-21) (1.219013e-01 -7.763351e-07 1.300749e-22) (0.000000e+00 0.000000e+00 0.000000e+00)) ((-1.987161e-21 -2.617626e-20 -1.169029e-14) (-7.116530e-22 -2.549399e-20 6.001943e-08) (0.000000e+00 0.000000e+00 0.000000e+00))
0.0175        	((1.167053e-01 9.592909e-06 -3.304563e-21) (1.191404e-01 -7.464945e-07 1.288911e-22) (0.000000e+00 0.000000e+00 0.000000e+00)) ((-1.800227e-21 -2.526884e-20 -1.150864e-14) (-6.819861e-22 -2.491613e-20 5.872721e-08) (0.000000e+00 0.000000e+00 0.000000e+00))
0.02          	((1.140538e-01 1.097410e-05 -3.185889e-21) (1.165561e-01 -7.145953e-07 1.279867e-22) (0.000000e+00 0.000000e+00 0.000000e+00)) ((-1.664173e-21 -2.469980e-20 -1.035345e-14) (-6.557250e-22 -2.437486e-20 5.744163e-08) (0.000000e+00 0.000000e+00 0.000000e+00))
0.0225        	((1.118999e-01 9.875895e-06 -3.076593e-21) (1.141175e-01 -6.851957e-07 1.273399e-22) (0.000000e+00 0.000000e+00 0.000000e+00)) ((-1.565574e-21 -2.424167e-20 -9.916836e-15) (-6.317924e-22 -2.386396e-20 5.617438e-08) (0.000000e+00 0.000000e+00 0.000000e+00))
0.025         	((1.098904e-01 9.687648e-06 -2.977666e-21) (1.118030e-01 -6.568521e-07 1.269228e-22) (0.000000e+00 0.000000e+00 0.000000e+00)) ((-1.465925e-21 -2.381440e-20 -9.667981e-15) (-6.096643e-22 -2.337897e-20 5.492837e-08) (0.000000e+00 0.000000e+00 0.000000e+00))
0.0275        	((1.079199e-01 9.189712e-06 -2.886166e-21) (1.095966e-01 -6.299893e-07 1.266917e-22) (0.000000e+00 0.000000e+00 0.000000e+00)) ((-1.383255e-21 -2.339427e-20 -9.149502e-15) (-5.890086e-22 -2.291649e-20 5.370575e-08) (0.000000e+00 0.000000e+00 0.000000e+00))
0.03          	((1.059527e-01 9.390004e-06 -2.803073e-21) (1.074864e-01 -6.032815e-07 1.266262e-22) (0.000000e+00 0.000000e+00 0.000000e+00)) ((-1.290492e-21 -2.297301e-20 -8.590553e-15) (-5.696673e-22 -2.247405e-20 5.250566e-08) (0.000000e+00 0.000000e+00 0.000000e+00))
0.0325        	((1.040002e-01 9.266685e-06 -2.725992e-21) (1.054627e-01 -5.773764e-07 1.266899e-22) (0.000000e+00 0.000000e+00 0.000000e+00)) ((-1.205861e-21 -2.255338e-20 -8.323347e-15) (-5.514729e-22 -2.204965e-20 5.132943e-08) (0.000000e+00 0.000000e+00 0.000000e+00))
0.035         	((1.020724e-01 9.781962e-06 -2.655428e-21) (1.035178e-01 -5.512417e-07 1.268570e-22) (0.000000e+00 0.000000e+00 0.000000e+00)) ((-1.113525e-21 -2.213768e-20 -8.323916e-15) (-5.342919e-22 -2.164170e-20 5.017603e-08) (0.000000e+00 0.000000e+00 0.000000e+00))
0.0375        	((1.001861e-01 9.712856e-06 -2.589712e-21) (1.016454e-01 -5.255120e-07 1.271019e-22) (0.000000e+00 0.000000e+00 0.000000e+00)) ((-1.027198e-21 -2.172963e-20 -7.677765e-15) (-5.180087e-22 -2.124890e-20 4.904850e-08) (0.000000e+00 0.000000e+00 0.000000e+00))
0.04          	((9.835006e-02 9.258637e-06 -2.529115e-21) (9.984024e-02 -5.012571e-07 1.274145e-22) (0.000000e+00 0.000000e+00 0.000000e+00)) ((-9.378149e-22 -2.133127e-20 -8.011988e-15) (-5.025383e-22 -2.087016e-20 4.794983e-08) (0.000000e+00 0.000000e+00 0.000000e+00))
0.0425        	((9.657488e-02 8.688207e-06 -2.472592e-21) (9.809771e-02 -4.784177e-07 1.277844e-22) (0.000000e+00 0.000000e+00 0.000000e+00)) ((-8.529042e-22 -2.094518e-20 -7.656691e-15) (-4.878091e-22 -2.050453e-20 4.688117e-08) (0.000000e+00 0.000000e+00 0.000000e+00))
0.045         	((9.486450e-02 8.461489e-06 -2.419945e-21) (9.641391e-02 -4.565755e-07 1.282123e-22) (0.000000e+00 0.000000e+00 0.000000e+00)) ((-7.700077e-22 -2.057228e-20 -7.840222e-15) (-4.737467e-22 -2.015120e-20 4.584153e-08) (0.000000e+00 0.000000e+00 0.000000e+00))
0.0475        	((9.321821e-02 7.997480e-06 -2.370679e-21) (9.478542e-02 -4.358183e-07 1.287095e-22) (0.000000e+00 0.000000e+00 0.000000e+00)) ((-6.896171e-22 -2.021244e-20 -7.190418e-15) (-4.603135e-22 -1.980949e-20 4.483155e-08) (0.000000e+00 0.000000e+00 0.000000e+00))
0.05          	((9.163841e-02 7.580710e-06 -2.324435e-21) (9.320923e-02 -4.163461e-07 1.292820e-22) (0.000000e+00 0.000000e+00 0.000000e+00)) ((-6.126911e-22 -1.986647e-20 -7.497162e-15) (-4.474451e-22 -1.947875e-20 4.385131e-08) (0.000000e+00 0.000000e+00 0.000000e+00))
0.0525        	((9.012485e-02 7.403185e-06 -2.280979e-21) (9.168260e-02 -3.975211e-07 1.299333e-22) (0.000000e+00 0.000000e+00 0.000000e+00)) ((-5.395705e-22 -1.953454e-20 -7.146707e-15) (-4.350968e-22 -1.915839e-20 4.289932e-08) (0.000000e+00 0.000000e+00 0.000000e+00))
0.055         	((8.867512e-02 7.345797e-06 -2.240049e-21) (9.020310e-02 -3.791859e-07 1.306647e-22) (0.000000e+00 0.000000e+00 0.000000e+00)) ((-4.701099e-22 -1.921624e-20 -7.094228e-15) (-4.232418e-22 -1.884791e-20 4.197474e-08) (0.000000e+00 0.000000e+00 0.000000e+00))
0.0575        	((8.728635e-02 7.362952e-06 -2.201459e-21) (8.876852e-02 -3.612022e-07 1.314742e-22) (0.000000e+00 0.000000e+00 0.000000e+00)) ((-4.032791e-22 -1.891110e-20 -6.961218e-15) (-4.118559e-22 -1.854685e-20 4.107692e-08) (0.000000e+00 0.000000e+00 0.000000e+00))
0.06          	((8.595647e-02 7.284965e-06 -2.164946e-21) (8.737681e-02 -3.436971e-07 1.323572e-22) (0.000000e+00 0.000000e+00 0.000000e+00)) ((-3.402673e-22 -1.861876e-20 -6.769300e-15) (-4.009070e-22 -1.825480e-20 4.020605e-08) (0.000000e+00 0.000000e+00 0.000000e+00))
0.0625        	((8.468475e-02 7.159961e-06 -2.130352e-21) (8.602610e-02 -3.268177e-07 1.333032e-22) (0.000000e+00 0.000000e+00 0.000000e+00)) ((-2.808640e-22 -1.833929e-20 -6.858567e-15) (-3.903665e-22 -1.797132e-20 3.936191e-08) (0.000000e+00 0.000000e+00 0.000000e+00))
0.065         	((8.346712e-02 7.059021e-06 -2.097508e-21) (8.471464e-02 -3.103964e-07 1.343040e-22) (0.000000e+00 0.000000e+00 0.000000e+00)) ((-2.246037e-22 -1.807172e-20 -6.468920e-15) (-3.802160e-22 -1.769608e-20 3.854423e-08) (0.000000e+00 0.000000e+00 0.000000e+00))
0.0675        	((8.229982e-02 7.013958e-06 -2.066266e-21) (8.344082e-02 -2.943947e-07 1.353500e-22) (0.000000e+00 0.000000e+00 0.000000e+00)) ((-1.714653e-22 -1.781527e-20 -6.458095e-15) (-3.704277e-22 -1.742871e-20 3.775250e-08) (0.000000e+00 0.000000e+00 0.000000e+00))
0.07          	((8.117857e-02 7.036078e-06 -2.036508e-21) (8.220317e-02 -2.786511e-07 1.364438e-22) (0.000000e+00 0.000000e+00 0.000000e+00)) ((-1.207591e-22 -1.756866e-20 -6.303535e-15) (-3.609932e-22 -1.716892e-20 3.698598e-08) (0.000000e+00 0.000000e+00 0.000000e+00))
0.0725        	((8.010348e-02 6.756220e-06 -2.008150e-21) (8.100027e-02 -2.636815e-07 1.375750e-22) (0.000000e+00 0.000000e+00 0.000000e+00)) ((-7.285909e-23 -1.733235e-20 -6.130435e-15) (-3.518938e-22 -1.691641e-20 3.624542e-08) (0.000000e+00 0.000000e+00 0.000000e+00))
0.075         	((7.906940e-02 6.220646e-06 -1.981111e-21) (7.983083e-02 -2.499616e-07 1.387433e-22) (0.000000e+00 0.000000e+00 0.000000e+00)) ((-2.651665e-23 -1.710488e-20 -6.082870e-15) (-3.431222e-22 -1.667092e-20 3.553141e-08) (0.000000e+00 0.000000e+00 0.000000e+00))
0.0775        	((7.807638e-02 5.734082e-06 -1.955317e-21) (7.869358e-02 -2.373670e-07 1.399414e-22) (0.000000e+00 0.000000e+00 0.000000e+00)) ((1.696590e-23 -1.688652e-20 -5.936081e-15) (-3.346549e-22 -1.643217e-20 3.484318e-08) (0.000000e+00 0.000000e+00 0.000000e+00))
0.08          	((7.712238e-02 5.412656e-06 -1.930646e-21) (7.758735e-02 -2.255257e-07 1.411629e-22) (0.000000e+00 0.000000e+00 0.000000e+00)) ((5.854651e-23 -1.667676e-20 -5.626484e-15) (-3.264812e-22 -1.619992e-20 3.417934e-08) (0.000000e+00 0.000000e+00 0.000000e+00))
0.0825        	((7.620792e-02 5.394325e-06 -1.907002e-21) (7.651099e-02 -2.140367e-07 1.424002e-22) (0.000000e+00 0.000000e+00 0.000000e+00)) ((9.775389e-23 -1.647589e-20 -5.832703e-15) (-3.185723e-22 -1.597392e-20 3.353796e-08) (0.000000e+00 0.000000e+00 0.000000e+00))
0.085         	((7.532343e-02 5.382547e-06 -1.884379e-21) (7.546348e-02 -2.027275e-07 1.436598e-22) (0.000000e+00 0.000000e+00 0.000000e+00)) ((1.359473e-22 -1.628125e-20 -5.498613e-15) (-3.109344e-22 -1.575397e-20 3.291807e-08) (0.000000e+00 0.000000e+00 0.000000e+00))
0.0875        	((7.447057e-02 5.377498e-06 -1.862668e-21) (7.444382e-02 -1.916974e-07 1.449358e-22) (0.000000e+00 0.000000e+00 0.000000e+00)) ((1.729908e-22 -1.609361e-20 -5.614936e-15) (-3.035541e-22 -1.553988e-20 3.231932e-08) (0.000000e+00 0.000000e+00 0.000000e+00))
0.09          	((7.364840e-02 5.372100e-06 -1.841781e-21) (7.345106e-02 -1.808457e-07 1.462290e-22) (0.000000e+00 0.000000e+00 0.000000e+00)) ((2.079934e-22 -1.591264e-20 -5.397446e-15) (-2.964135e-22 -1.533143e-20 3.174113e-08) (0.000000e+00 0.000000e+00 0.000000e+00))
0.0925        	((7.285556e-02 5.163850e-06 -1.821687e-21) (7.248429e-02 -1.705022e-07 1.475351e-22) (0.000000e+00 0.000000e+00 0.000000e+00)) ((2.415474e-22 -1.573818e-20 -5.145497e-15) (-2.895088e-22 -1.512843e-20 3.118393e-08) (0.000000e+00 0.000000e+00 0.000000e+00))
0.095         	((7.209317e-02 4.920639e-06 -1.802417e-21) (7.154262e-02 -1.609123e-07 1.488477e-22) (0.000000e+00 0.000000e+00 0.000000e+00)) ((2.734425e-22 -1.557062e-20 -5.523896e-15) (-2.828210e-22 -1.493069e-20 3.064720e-08) (0.000000e+00 0.000000e+00 0.000000e+00))
0.0975        	((7.135236e-02 4.677440e-06 -1.783883e-21) (7.062528e-02 -1.517583e-07 1.501775e-22) (0.000000e+00 0.000000e+00 0.000000e+00)) ((3.045825e-22 -1.540731e-20 -4.879308e-15) (-2.763601e-22 -1.473805e-20 3.013038e-08) (0.000000e+00 0.000000e+00 0.000000e+00))
0.1           	((7.064353e-02 4.652626e-06 -1.766044e-21) (6.973138e-02 -1.429438e-07 1.515127e-22) (0.000000e+00 0.000000e+00 0.000000e+00)) ((3.343675e-22 -1.525161e-20 -5.234277e-15) (-2.700892e-22 -1.455032e-20 2.963215e-08) (0.000000e+00 0.000000e+00 0.000000e+00))
0.1025        	((6.995343e-02 4.588686e-06 -1.748842e-21) (6.886023e-02 -1.343440e-07 1.528587e-22) (0.000000e+00 0.000000e+00 0.000000e+00)) ((3.631375e-22 -1.509954e-20 -4.961384e-15) (-2.640230e-22 -1.436737e-20 2.915176e-08) (0.000000e+00 0.000000e+00 0.000000e+00))
0.105         	((6.928680e-02 4.467885e-06 -1.732255e-21) (6.801109e-02 -1.261536e-07 1.542115e-22) (0.000000e+00 0.000000e+00 0.000000e+00)) ((3.911141e-22 -1.495277e-20 -5.073188e-15) (-2.581493e-22 -1.418905e-20 2.868903e-08) (0.000000e+00 0.000000e+00 0.000000e+00))
0.1075        	((6.864347e-02 4.663682e-06 -1.716243e-21) (6.718324e-02 -1.176816e-07 1.555709e-22) (0.000000e+00 0.000000e+00 0.000000e+00)) ((4.184207e-22 -1.481114e-20 -4.653476e-15) (-2.524495e-22 -1.401521e-20 2.824261e-08) (0.000000e+00 0.000000e+00 0.000000e+00))
0.11          	((6.801921e-02 4.483340e-06 -1.700798e-21) (6.637606e-02 -1.097839e-07 1.569357e-22) (0.000000e+00 0.000000e+00 0.000000e+00)) ((4.436597e-22 -1.467361e-20 -5.017062e-15) (-2.469221e-22 -1.384569e-20 2.781286e-08) (0.000000e+00 0.000000e+00 0.000000e+00))
0.1125        	((6.741512e-02 4.548479e-06 -1.685893e-21) (6.558889e-02 -1.018617e-07 1.583068e-22) (0.000000e+00 0.000000e+00 0.000000e+00)) ((4.692209e-22 -1.454050e-20 -4.763754e-15) (-2.415698e-22 -1.368036e-20 2.739896e-08) (0.000000e+00 0.000000e+00 0.000000e+00))
0.115         	((6.682990e-02 4.351826e-06 -1.671382e-21) (6.482110e-02 -9.436837e-08 1.596810e-22) (0.000000e+00 0.000000e+00 0.000000e+00)) ((4.937821e-22 -1.441157e-20 -4.605751e-15) (-2.363892e-22 -1.351912e-20 2.700123e-08) (0.000000e+00 0.000000e+00 0.000000e+00))
0.1175        	((6.626608e-02 4.011010e-06 -1.657383e-21) (6.407207e-02 -8.761984e-08 1.610582e-22) (0.000000e+00 0.000000e+00 0.000000e+00)) ((5.172345e-22 -1.428746e-20 -4.596026e-15) (-2.313653e-22 -1.336182e-20 2.661961e-08) (0.000000e+00 0.000000e+00 0.000000e+00))
0.12          	((6.571828e-02 3.933435e-06 -1.643827e-21) (6.334124e-02 -8.104590e-08 1.624384e-22) (0.000000e+00 0.000000e+00 0.000000e+00)) ((5.402820e-22 -1.416683e-20 -4.304945e-15) (-2.264933e-22 -1.320834e-20 2.625285e-08) (0.000000e+00 0.000000e+00 0.000000e+00))
0.1225        	((6.518843e-02 3.930508e-06 -1.630643e-21) (6.262804e-02 -7.477888e-08 1.638203e-22) (0.000000e+00 0.000000e+00 0.000000e+00)) ((5.628421e-22 -1.405025e-20 -4.899233e-15) (-2.217593e-22 -1.305856e-20 2.589981e-08) (0.000000e+00 0.000000e+00 0.000000e+00))
0.125         	((6.466848e-02 3.902383e-06 -1.617824e-21) (6.193198e-02 -6.852433e-08 1.652053e-22) (0.000000e+00 0.000000e+00 0.000000e+00)) ((5.854473e-22 -1.393553e-20 -4.311863e-15) (-2.171815e-22 -1.291241e-20 2.556008e-08) (0.000000e+00 0.000000e+00 0.000000e+00))
0.1275        	((6.417203e-02 3.711681e-06 -1.605482e-21) (6.125255e-02 -6.282584e-08 1.665916e-22) (0.000000e+00 0.000000e+00 0.000000e+00)) ((6.054281e-22 -1.382633e-20 -4.703982e-15) (-2.127040e-22 -1.276971e-20 2.523384e-08) (0.000000e+00 0.000000e+00 0.000000e+00))
0.13          	((6.368775e-02 3.343645e-06 -1.593500e-21) (6.058928e-02 -5.781850e-08 1.679770e-22) (0.000000e+00 0.000000e+00 0.000000e+00)) ((6.250164e-22 -1.371962e-20 -4.421750e-15) (-2.083640e-22 -1.263041e-20 2.492113e-08) (0.000000e+00 0.000000e+00 0.000000e+00))
0.1325        	((6.321833e-02 3.284742e-06 -1.581854e-21) (5.994166e-02 -5.293598e-08 1.693617e-22) (0.000000e+00 0.000000e+00 0.000000e+00)) ((6.446584e-22 -1.361621e-20 -4.314453e-15) (-2.041655e-22 -1.249439e-20 2.462058e-08) (0.000000e+00 0.000000e+00 0.000000e+00))
0.135         	((6.276767e-02 3.490568e-06 -1.570556e-21) (5.930919e-02 -4.768811e-08 1.707421e-22) (0.000000e+00 0.000000e+00 0.000000e+00)) ((6.630103e-22 -1.351705e-20 -4.025751e-15) (-2.000966e-22 -1.236157e-20 2.433087e-08) (0.000000e+00 0.000000e+00 0.000000e+00))
0.1375        	((6.232761e-02 3.338036e-06 -1.559576e-21) (5.869146e-02 -4.297683e-08 1.721207e-22) (0.000000e+00 0.000000e+00 0.000000e+00)) ((6.811066e-22 -1.342019e-20 -4.588902e-15) (-1.961566e-22 -1.223185e-20 2.405248e-08) (0.000000e+00 0.000000e+00 0.000000e+00))
0.14          	((6.189812e-02 3.277406e-06 -1.548827e-21) (5.808807e-02 -3.833051e-08 1.734974e-22) (0.000000e+00 0.000000e+00 0.000000e+00)) ((6.989937e-22 -1.332562e-20 -4.206612e-15) (-1.923366e-22 -1.210515e-20 2.378503e-08) (0.000000e+00 0.000000e+00 0.000000e+00))
0.1425        	((6.148140e-02 3.203058e-06 -1.538337e-21) (5.749859e-02 -3.396718e-08 1.748721e-22) (0.000000e+00 0.000000e+00 0.000000e+00)) ((7.163988e-22 -1.323392e-20 -4.456079e-15) (-1.886317e-22 -1.198136e-20 2.352808e-08) (0.000000e+00 0.000000e+00 0.000000e+00))
0.145         	((6.107519e-02 3.118571e-06 -1.528165e-21) (5.692265e-02 -2.977465e-08 1.762464e-22) (0.000000e+00 0.000000e+00 0.000000e+00)) ((7.335893e-22 -1.314450e-20 -4.414241e-15) (-1.850418e-22 -1.186041e-20 2.328126e-08) (0.000000e+00 0.000000e+00 0.000000e+00))
0.1475        	((6.068605e-02 3.160902e-06 -1.518318e-21) (5.635985e-02 -2.558861e-08 1.776163e-22) (0.000000e+00 0.000000e+00 0.000000e+00)) ((7.489533e-22 -1.305901e-20 -4.001115e-15) (-1.815311e-22 -1.174222e-20 2.304404e-08) (0.000000e+00 0.000000e+00 0.000000e+00))
0.15          	((6.030579e-02 3.144472e-06 -1.508701e-21) (5.580983e-02 -2.141030e-08 1.789811e-22) (0.000000e+00 0.000000e+00 0.000000e+00)) ((7.644724e-22 -1.297544e-20 -3.973148e-15) (-1.781394e-22 -1.162671e-20 2.281615e-08) (0.000000e+00 0.000000e+00 0.000000e+00))
0.1525        	((5.994424e-02 3.006243e-06 -1.499385e-21) (5.527217e-02 -1.759550e-08 1.803406e-22) (0.000000e+00 0.000000e+00 0.000000e+00)) ((7.787104e-22 -1.289591e-20 -4.046342e-15) (-1.748337e-22 -1.151382e-20 2.259776e-08) (0.000000e+00 0.000000e+00 0.000000e+00))
0.155         	((5.958472e-02 2.993650e-06 -1.490240e-21) (5.474657e-02 -1.377356e-08 1.816971e-22) (0.000000e+00 0.000000e+00 0.000000e+00)) ((7.940199e-22 -1.281674e-20 -3.951148e-15) (-1.716439e-22 -1.140347e-20 2.238822e-08) (0.000000e+00 0.000000e+00 0.000000e+00))
0.1575        	((5.923755e-02 2.696264e-06 -1.481358e-21) (5.423269e-02 -1.064155e-08 1.830495e-22) (0.000000e+00 0.000000e+00 0.000000e+00)) ((8.082817e-22 -1.274045e-20 -4.203226e-15) (-1.685426e-22 -1.129558e-20 2.218783e-08) (0.000000e+00 0.000000e+00 0.000000e+00))
0.16          	((5.889827e-02 2.655134e-06 -1.472650e-21) (5.373021e-02 -7.584625e-09 1.843968e-22) (0.000000e+00 0.000000e+00 0.000000e+00)) ((8.226018e-22 -1.266589e-20 -4.136131e-15) (-1.655366e-22 -1.119008e-20 2.199551e-08) (0.000000e+00 0.000000e+00 0.000000e+00))
0.1625        	((5.856723e-02 2.367294e-06 -1.464022e-21) (5.323882e-02 -5.085800e-09 1.857379e-22) (0.000000e+00 0.000000e+00 0.000000e+00)) ((8.373008e-22 -1.259322e-20 -4.152082e-15) (-1.626291e-22 -1.108692e-20 2.181139e-08) (0.000000e+00 0.000000e+00 0.000000e+00))
0.165         	((5.824505e-02 2.142144e-06 -1.455646e-21) (5.275821e-02 -3.015200e-09 1.870758e-22) (0.000000e+00 0.000000e+00 0.000000e+00)) ((8.515891e-22 -1.252252e-20 -4.146276e-15) (-1.598084e-22 -1.098602e-20 2.163498e-08) (0.000000e+00 0.000000e+00 0.000000e+00))
0.1675        	((5.793483e-02 1.918366e-06 -1.447557e-21) (5.228806e-02 -1.261150e-09 1.884104e-22) (0.000000e+00 0.000000e+00 0.000000e+00)) ((8.649871e-22 -1.245437e-20 -3.638127e-15) (-1.570621e-22 -1.088733e-20 2.146579e-08) (0.000000e+00 0.000000e+00 0.000000e+00))
0.17          	((5.763612e-02 1.986858e-06 -1.439640e-21) (5.182811e-02 3.816093e-10 1.897364e-22) (0.000000e+00 0.000000e+00 0.000000e+00)) ((8.772685e-22 -1.238897e-20 -4.253951e-15) (-1.543792e-22 -1.079077e-20 2.130245e-08) (0.000000e+00 0.000000e+00 0.000000e+00))
0.1725        	((5.734392e-02 1.869875e-06 -1.431847e-21) (5.137808e-02 2.053524e-09 1.910553e-22) (0.000000e+00 0.000000e+00 0.000000e+00)) ((8.897686e-22 -1.232486e-20 -3.700422e-15) (-1.517823e-22 -1.069630e-20 2.114524e-08) (0.000000e+00 0.000000e+00 0.000000e+00))
0.175         	((5.706217e-02 1.941955e-06 -1.424284e-21) (5.093768e-02 3.712510e-09 1.923694e-22) (0.000000e+00 0.000000e+00 0.000000e+00)) ((9.018469e-22 -1.226299e-20 -3.692059e-15) (-1.492530e-22 -1.060384e-20 2.099367e-08) (0.000000e+00 0.000000e+00 0.000000e+00))
0.1775        	((5.678646e-02 1.952132e-06 -1.416809e-21) (5.050666e-02 5.368456e-09 1.936751e-22) (0.000000e+00 0.000000e+00 0.000000e+00)) ((9.139291e-22 -1.220263e-20 -4.244947e-15) (-1.467990e-22 -1.051337e-20 2.084744e-08) (0.000000e+00 0.000000e+00 0.000000e+00))
0.18          	((5.651520e-02 2.120653e-06 -1.409506e-21) (5.008479e-02 7.317309e-09 1.949750e-22) (0.000000e+00 0.000000e+00 0.000000e+00)) ((9.262835e-22 -1.214321e-20 -3.850487e-15) (-1.444302e-22 -1.042481e-20 2.070611e-08) (0.000000e+00 0.000000e+00 0.000000e+00))
0.1825        	((5.625287e-02 2.116895e-06 -1.402366e-21) (4.967181e-02 9.244701e-09 1.962683e-22) (0.000000e+00 0.000000e+00 0.000000e+00)) ((9.380556e-22 -1.208583e-20 -3.978333e-15) (-1.421263e-22 -1.033812e-20 2.057012e-08) (0.000000e+00 0.000000e+00 0.000000e+00))
0.185         	((5.599704e-02 2.090543e-06 -1.395357e-21) (4.926749e-02 1.111170e-08 1.975543e-22) (0.000000e+00 0.000000e+00 0.000000e+00)) ((9.497600e-22 -1.202990e-20 -3.918618e-15) (-1.398942e-22 -1.025325e-20 2.043959e-08) (0.000000e+00 0.000000e+00 0.000000e+00))
0.1875        	((5.575163e-02 2.104192e-06 -1.388500e-21) (4.887156e-02 1.306704e-08 1.988347e-22) (0.000000e+00 0.000000e+00 0.000000e+00)) ((9.610170e-22 -1.197611e-20 -3.759266e-15) (-1.377187e-22 -1.017014e-20 2.031429e-08) (0.000000e+00 0.000000e+00 0.000000e+00))
0.19          	((5.550727e-02 2.033627e-06 -1.381732e-21) (4.848385e-02 1.476413e-08 2.001059e-22) (0.000000e+00 0.000000e+00 0.000000e+00)) ((9.725493e-22 -1.192288e-20 -4.040479e-15) (-1.356220e-22 -1.008876e-20 2.019418e-08) (0.000000e+00 0.000000e+00 0.000000e+00))
0.1925        	((5.527387e-02 1.933083e-06 -1.375133e-21) (4.810412e-02 1.632091e-08 2.013699e-22) (0.000000e+00 0.000000e+00 0.000000e+00)) ((9.833359e-22 -1.187197e-20 -3.568902e-15) (-1.335755e-22 -1.000905e-20 2.007917e-08) (0.000000e+00 0.000000e+00 0.000000e+00))
0.195         	((5.504845e-02 1.875114e-06 -1.368687e-21) (4.773218e-02 1.782303e-08 2.026250e-22) (0.000000e+00 0.000000e+00 0.000000e+00)) ((9.934094e-22 -1.182294e-20 -3.640790e-15) (-1.315790e-22 -9.930976e-21 1.996904e-08) (0.000000e+00 0.000000e+00 0.000000e+00))
0.1975        	((5.483082e-02 1.890090e-06 -1.362342e-21) (4.736778e-02 1.930074e-08 2.038726e-22) (0.000000e+00 0.000000e+00 0.000000e+00)) ((1.003298e-21 -1.177544e-20 -3.827595e-15) (-1.296377e-22 -9.854483e-21 1.986333e-08) (0.000000e+00 0.000000e+00 0.000000e+00))
0.2           	((5.461502e-02 1.853173e-06 -1.356048e-21) (4.701074e-02 2.068944e-08 2.051118e-22) (0.000000e+00 0.000000e+00 0.000000e+00)) ((1.013877e-21 -1.172847e-20 -3.772447e-15) (-1.277662e-22 -9.779543e-21 1.976191e-08) (0.000000e+00 0.000000e+00 0.000000e+00))
0.2025        	((5.440831e-02 1.814532e-06 -1.349935e-21) (4.666089e-02 2.199704e-08 2.063436e-22) (0.000000e+00 0.000000e+00 0.000000e+00)) ((1.023572e-21 -1.168359e-20 -3.580313e-15) (-1.259350e-22 -9.706114e-21 1.966474e-08) (0.000000e+00 0.000000e+00 0.000000e+00))
0.205         	((5.420256e-02 1.862984e-06 -1.343782e-21) (4.631803e-02 2.337236e-08 2.075655e-22) (0.000000e+00 0.000000e+00 0.000000e+00)) ((1.033904e-21 -1.163891e-20 -3.855088e-15) (-1.241761e-22 -9.634156e-21 1.957141e-08) (0.000000e+00 0.000000e+00 0.000000e+00))
0.2075        	((5.400515e-02 1.801918e-06 -1.337735e-21) (4.598200e-02 2.464203e-08 2.087790e-22) (0.000000e+00 0.000000e+00 0.000000e+00)) ((1.043663e-21 -1.159615e-20 -3.718149e-15) (-1.224603e-22 -9.563626e-21 1.948208e-08) (0.000000e+00 0.000000e+00 0.000000e+00))
0.21          	((5.381568e-02 1.729906e-06 -1.331873e-21) (4.565256e-02 2.584399e-08 2.099871e-22) (0.000000e+00 0.000000e+00 0.000000e+00)) ((1.052878e-21 -1.155498e-20 -3.633394e-15) (-1.207877e-22 -9.494477e-21 1.939681e-08) (0.000000e+00 0.000000e+00 0.000000e+00))
0.2125        	((5.362564e-02 1.641985e-06 -1.326065e-21) (4.532961e-02 2.679884e-08 2.111849e-22) (0.000000e+00 0.000000e+00 0.000000e+00)) ((1.062738e-21 -1.151396e-20 -3.784479e-15) (-1.191794e-22 -9.426699e-21 1.931534e-08) (0.000000e+00 0.000000e+00 0.000000e+00))
0.215         	((5.344414e-02 1.583803e-06 -1.320362e-21) (4.501296e-02 2.768567e-08 2.123746e-22) (0.000000e+00 0.000000e+00 0.000000e+00)) ((1.072030e-21 -1.147471e-20 -3.722094e-15) (-1.176116e-22 -9.360234e-21 1.923737e-08) (0.000000e+00 0.000000e+00 0.000000e+00))
0.2175        	((5.326480e-02 1.546092e-06 -1.314719e-21) (4.470246e-02 2.848981e-08 2.135545e-22) (0.000000e+00 0.000000e+00 0.000000e+00)) ((1.081615e-21 -1.143604e-20 -3.789978e-15) (-1.160994e-22 -9.295062e-21 1.916272e-08) (0.000000e+00 0.000000e+00 0.000000e+00))
0.22          	((5.309385e-02 1.436347e-06 -1.309199e-21) (4.439796e-02 2.909189e-08 2.147250e-22) (0.000000e+00 0.000000e+00 0.000000e+00)) ((1.090422e-21 -1.139924e-20 -3.435543e-15) (-1.146210e-22 -9.231147e-21 1.909140e-08) (0.000000e+00 0.000000e+00 0.000000e+00))
0.2225        	((5.293092e-02 1.421319e-06 -1.303780e-21) (4.409928e-02 2.976214e-08 2.158875e-22) (0.000000e+00 0.000000e+00 0.000000e+00)) ((1.098538e-21 -1.136419e-20 -3.507399e-15) (-1.131712e-22 -9.168460e-21 1.902309e-08) (0.000000e+00 0.000000e+00 0.000000e+00))
0.225         	((5.277143e-02 1.412699e-06 -1.298412e-21) (4.380628e-02 3.037152e-08 2.170421e-22) (0.000000e+00 0.000000e+00 0.000000e+00)) ((1.106764e-21 -1.132989e-20 -3.596541e-15) (-1.117638e-22 -9.106967e-21 1.895761e-08) (0.000000e+00 0.000000e+00 0.000000e+00))
0.2275        	((5.261485e-02 1.406906e-06 -1.293123e-21) (4.351882e-02 3.096434e-08 2.181880e-22) (0.000000e+00 0.000000e+00 0.000000e+00)) ((1.115052e-21 -1.129629e-20 -3.629563e-15) (-1.104005e-22 -9.046640e-21 1.889484e-08) (0.000000e+00 0.000000e+00 0.000000e+00))
0.23          	((5.246361e-02 1.394342e-06 -1.287856e-21) (4.323676e-02 3.153370e-08 2.193237e-22) (0.000000e+00 0.000000e+00 0.000000e+00)) ((1.123254e-21 -1.126393e-20 -3.325302e-15) (-1.090734e-22 -8.987453e-21 1.883471e-08) (0.000000e+00 0.000000e+00 0.000000e+00))
0.2325        	((5.231569e-02 1.444832e-06 -1.282687e-21) (4.295999e-02 3.219014e-08 2.204507e-22) (0.000000e+00 0.000000e+00 0.000000e+00)) ((1.131371e-21 -1.123230e-20 -3.806993e-15) (-1.077881e-22 -8.929375e-21 1.877695e-08) (0.000000e+00 0.000000e+00 0.000000e+00))
0.235         	((5.217399e-02 1.312103e-06 -1.277627e-21) (4.268834e-02 3.270075e-08 2.215710e-22) (0.000000e+00 0.000000e+00 0.000000e+00)) ((1.138972e-21 -1.120202e-20 -3.301220e-15) (-1.065301e-22 -8.872372e-21 1.872213e-08) (0.000000e+00 0.000000e+00 0.000000e+00))
0.2375        	((5.203212e-02 1.210661e-06 -1.272459e-21) (4.242170e-02 3.292496e-08 2.226794e-22) (0.000000e+00 0.000000e+00 0.000000e+00)) ((1.147595e-21 -1.117181e-20 -3.897903e-15) (-1.053252e-22 -8.816425e-21 1.866987e-08) (0.000000e+00 0.000000e+00 0.000000e+00))
0.24          	((5.189378e-02 1.004584e-06 -1.267349e-21) (4.215995e-02 3.286511e-08 2.237795e-22) (0.000000e+00 0.000000e+00 0.000000e+00)) ((1.156283e-21 -1.114240e-20 -3.623432e-15) (-1.041589e-22 -8.761504e-21 1.862026e-08) (0.000000e+00 0.000000e+00 0.000000e+00))
0.2425        	((5.176093e-02 9.058959e-07 -1.262366e-21) (4.190298e-02 3.261073e-08 2.248714e-22) (0.000000e+00 0.000000e+00 0.000000e+00)) ((1.164288e-21 -1.111422e-20 -3.614512e-15) (-1.030204e-22 -8.707582e-21 1.857282e-08) (0.000000e+00 0.000000e+00 0.000000e+00))
0.245         	((5.163191e-02 8.318618e-07 -1.257427e-21) (4.165066e-02 3.225437e-08 2.259535e-22) (0.000000e+00 0.000000e+00 0.000000e+00)) ((1.172208e-21 -1.108692e-20 -3.592334e-15) (-1.019158e-22 -8.654636e-21 1.852720e-08) (0.000000e+00 0.000000e+00 0.000000e+00))
0.2475        	((5.150615e-02 9.762059e-07 -1.252560e-21) (4.140289e-02 3.216599e-08 2.270257e-22) (0.000000e+00 0.000000e+00 0.000000e+00)) ((1.180186e-21 -1.106034e-20 -3.610219e-15) (-1.008454e-22 -8.602639e-21 1.848280e-08) (0.000000e+00 0.000000e+00 0.000000e+00))
0.25          	((5.138381e-02 1.146719e-06 -1.247736e-21) (4.115955e-02 3.239006e-08 2.280877e-22) (0.000000e+00 0.000000e+00 0.000000e+00)) ((1.188164e-21 -1.103456e-20 -3.355258e-15) (-9.980776e-23 -8.551570e-21 1.843959e-08) (0.000000e+00 0.000000e+00 0.000000e+00))
0.2525        	((5.126988e-02 1.129618e-06 -1.243034e-21) (4.092056e-02 3.257690e-08 2.291398e-22) (0.000000e+00 0.000000e+00 0.000000e+00)) ((1.195121e-21 -1.101064e-20 -3.514820e-15) (-9.878405e-23 -8.501420e-21 1.839810e-08) (0.000000e+00 0.000000e+00 0.000000e+00))
0.255         	((5.115948e-02 1.029794e-06 -1.238359e-21) (4.068576e-02 3.269556e-08 2.301855e-22) (0.000000e+00 0.000000e+00 0.000000e+00)) ((1.201507e-21 -1.098742e-20 -3.447533e-15) (-9.778679e-23 -8.452158e-21 1.835877e-08) (0.000000e+00 0.000000e+00 0.000000e+00))
0.2575        	((5.105065e-02 9.352251e-07 -1.233714e-21) (4.045508e-02 3.261320e-08 2.312229e-22) (0.000000e+00 0.000000e+00 0.000000e+00)) ((1.208325e-21 -1.096461e-20 -3.498468e-15) (-9.682665e-23 -8.403762e-21 1.832145e-08) (0.000000e+00 0.000000e+00 0.000000e+00))
0.26          	((5.094418e-02 8.146655e-07 -1.229099e-21) (4.022841e-02 3.232485e-08 2.322509e-22) (0.000000e+00 0.000000e+00 0.000000e+00)) ((1.215346e-21 -1.094238e-20 -3.524034e-15) (-9.589894e-23 -8.356210e-21 1.828597e-08) (0.000000e+00 0.000000e+00 0.000000e+00))
0.2625        	((5.084255e-02 7.156953e-07 -1.224436e-21) (4.000568e-02 3.187206e-08 2.332683e-22) (0.000000e+00 0.000000e+00 0.000000e+00)) ((1.222123e-21 -1.092127e-20 -3.274916e-15) (-9.499455e-23 -8.309486e-21 1.825213e-08) (0.000000e+00 0.000000e+00 0.000000e+00))
0.265         	((5.074281e-02 7.825000e-07 -1.219882e-21) (3.978678e-02 3.154910e-08 2.342773e-22) (0.000000e+00 0.000000e+00 0.000000e+00)) ((1.229016e-21 -1.090056e-20 -3.721941e-15) (-9.411990e-23 -8.263570e-21 1.821932e-08) (0.000000e+00 0.000000e+00 0.000000e+00))
0.2675        	((5.064814e-02 8.049588e-07 -1.215377e-21) (3.957159e-02 3.133341e-08 2.352815e-22) (0.000000e+00 0.000000e+00 0.000000e+00)) ((1.235053e-21 -1.088089e-20 -3.354033e-15) (-9.326201e-23 -8.218433e-21 1.818771e-08) (0.000000e+00 0.000000e+00 0.000000e+00))
0.27          	((5.055193e-02 8.559351e-07 -1.210881e-21) (3.936008e-02 3.117033e-08 2.362728e-22) (0.000000e+00 0.000000e+00 0.000000e+00)) ((1.242567e-21 -1.086108e-20 -3.572687e-15) (-9.244972e-23 -8.174067e-21 1.815723e-08) (0.000000e+00 0.000000e+00 0.000000e+00))
0.2725        	((5.046162e-02 8.471469e-07 -1.206440e-21) (3.915213e-02 3.103689e-08 2.372566e-22) (0.000000e+00 0.000000e+00 0.000000e+00)) ((1.249066e-21 -1.084248e-20 -3.456508e-15) (-9.164898e-23 -8.130446e-21 1.812800e-08) (0.000000e+00 0.000000e+00 0.000000e+00))
0.275         	((5.037271e-02 6.826537e-07 -1.202026e-21) (3.894767e-02 3.062272e-08 2.382300e-22) (0.000000e+00 0.000000e+00 0.000000e+00)) ((1.255962e-21 -1.082428e-20 -3.472096e-15) (-9.087845e-23 -8.087557e-21 1.810049e-08) (0.000000e+00 0.000000e+00 0.000000e+00))