# Forces      
# CofR        : (0.000000e+00 0.000000e+00 0.000000e+00)
# Time        forces(pressure viscous porous)	moments(pressure viscous porous)
0.005         	((1.745582e+01 8.143005e-07 -2.984657e-19) (1.351389e+00 9.908759e-09 3.236798e-21) (0.000000e+00 0.000000e+00 0.000000e+00)) ((1.840398e-18 5.599551e-19 -7.963906e-15) (-6.740789e-19 7.897123e-20 -8.624647e-11) (0.000000e+00 0.000000e+00 0.000000e+00))
0.01          	((1.952867e-01 -3.491842e-07 2.719298e-20) (8.424714e-01 -3.792644e-09 -2.173123e-21) (0.000000e+00 0.000000e+00 0.000000e+00)) ((2.237316e-20 5.458187e-21 -1.191180e-15) (-8.854081e-21 5.766096e-20 -5.832987e-09) (0.000000e+00 0.000000e+00 0.000000e+00))
0.015         	((7.476052e-01 3.934143e-08 -1.620749e-21) (6.414632e-01 -2.155706e-09 -1.264159e-21) (0.000000e+00 0.000000e+00 0.000000e+00)) ((8.300101e-20 2.431637e-20 4.535135e-15) (-3.163499e-20 4.391936e-20 -3.236704e-09) (0.000000e+00 0.000000e+00 0.000000e+00))
0.02          	((5.184193e-01 -3.504722e-10 1.106254e-21) (5.241653e-01 -1.781396e-10 -1.267023e-21) (0.000000e+00 0.000000e+00 0.000000e+00)) ((5.762463e-20 1.707015e-20 -3.487933e-15) (-2.229655e-20 3.609149e-20 -4.337418e-09) (0.000000e+00 0.000000e+00 0.000000e+00))
0.025         	((4.531295e-01 2.149447e-08 1.957550e-21) (4.529365e-01 7.776208e-10 -1.235238e-21) (0.000000e+00 0.000000e+00 0.000000e+00)) ((5.046646e-20 1.496756e-20 -1.515614e-15) (-1.945923e-20 3.125852e-20 -4.070149e-09) (0.000000e+00 0.000000e+00 0.000000e+00))
0.03          	((4.045682e-01 2.064100e-08 2.812269e-21) (4.049916e-01 1.529697e-09 -1.215375e-21) (0.000000e+00 0.000000e+00 0.000000e+00)) ((4.519334e-20 1.338607e-20 -1.272623e-15) (-1.736639e-20 2.798176e-20 -3.687299e-09) (0.000000e+00 0.000000e+00 0.000000e+00))
0.035         	((3.712449e-01 1.686664e-08 3.405925e-21) (3.705612e-01 1.897762e-09 -1.194834e-21) (0.000000e+00 0.000000e+00 0.000000e+00)) ((4.160096e-20 1.229494e-20 -8.633376e-16) (-1.591672e-20 2.561668e-20 -3.330782e-09) (0.000000e+00 0.000000e+00 0.000000e+00))
0.04          	((3.456981e-01 1.945198e-08 3.820368e-21) (3.443501e-01 3.746210e-09 -1.174775e-21) (0.000000e+00 0.000000e+00 0.000000e+00)) ((3.885382e-20 1.145950e-20 -1.439764e-15) (-1.480571e-20 2.381089e-20 1.036196e-09) (0.000000e+00 0.000000e+00 0.000000e+00))
0.045         	((3.253239e-01 1.812894e-08 4.112080e-21) (3.235313e-01 5.028715e-09 -1.155400e-21) (0.000000e+00 0.000000e+00 0.000000e+00)) ((3.666205e-20 1.079483e-20 -1.293062e-15) (-1.391923e-20 2.237425e-20 3.430451e-09) (0.000000e+00 0.000000e+00 0.000000e+00))
0.05          	((3.085461e-01 1.755297e-08 4.325164e-21) (3.064551e-01 5.735154e-09 -1.137299e-21) (0.000000e+00 0.000000e+00 0.000000e+00)) ((3.485524e-20 1.024872e-20 -1.166725e-15) (-1.318923e-20 2.119484e-20 4.711186e-09) (0.000000e+00 0.000000e+00 0.000000e+00))
0.055         	((2.944322e-01 1.827197e-08 4.487066e-21) (2.921051e-01 6.126756e-09 -1.120495e-21) (0.000000e+00 0.000000e+00 0.000000e+00)) ((3.333303e-20 9.789956e-21 -1.000118e-15) (-1.257503e-20 2.020328e-20 5.346284e-09) (0.000000e+00 0.000000e+00 0.000000e+00))
0.06          	((2.823583e-01 1.855926e-08 4.614885e-21) (2.798176e-01 6.312194e-09 -1.104956e-21) (0.000000e+00 0.000000e+00 0.000000e+00)) ((3.202912e-20 9.397777e-21 -8.858614e-16) (-1.204950e-20 1.935397e-20 5.599173e-09) (0.000000e+00 0.000000e+00 0.000000e+00))
0.065         	((2.718859e-01 1.851248e-08 4.719572e-21) (2.691376e-01 6.362207e-09 -1.090645e-21) (0.000000e+00 0.000000e+00 0.000000e+00)) ((3.089702e-20 9.057605e-21 -8.710167e-16) (-1.159351e-20 1.861565e-20 5.624151e-09) (0.000000e+00 0.000000e+00 0.000000e+00))
0.07          	((2.626966e-01 1.741196e-08 4.806712e-21) (2.597411e-01 6.326448e-09 -1.077305e-21) (0.000000e+00 0.000000e+00 0.000000e+00)) ((2.990253e-20 8.759040e-21 -7.919168e-16) (-1.119325e-20 1.796601e-20 5.513313e-09) (0.000000e+00 0.000000e+00 0.000000e+00))
0.075         	((2.545505e-01 1.286085e-08 4.880992e-21) (2.513894e-01 9.903503e-09 -1.064929e-21) (0.000000e+00 0.000000e+00 0.000000e+00)) ((2.902002e-20 8.494250e-21 -8.739035e-16) (-1.083824e-20 1.738855e-20 7.782879e-09) (0.000000e+00 0.000000e+00 0.000000e+00))
0.08          	((2.472674e-01 1.545543e-08 4.945007e-21) (2.439020e-01 1.277999e-08 -1.053380e-21) (0.000000e+00 0.000000e+00 0.000000e+00)) ((2.823052e-20 8.257386e-21 -8.684013e-16) (-1.052069e-20 1.687083e-20 8.990265e-09) (0.000000e+00 0.000000e+00 0.000000e+00))
0.085         	((2.407069e-01 1.642741e-08 5.000428e-21) (2.371396e-01 1.446680e-08 -1.042517e-21) (0.000000e+00 0.000000e+00 0.000000e+00)) ((2.751818e-20 8.043929e-21 -8.682245e-16) (-1.023446e-20 1.640320e-20 9.577219e-09) (0.000000e+00 0.000000e+00 0.000000e+00))
0.09          	((2.347578e-01 1.658873e-08 5.049314e-21) (2.309924e-01 1.546736e-08 -1.032334e-21) (0.000000e+00 0.000000e+00 0.000000e+00)) ((2.687185e-20 7.850257e-21 -8.951531e-16) (-9.974777e-21 1.597812e-20 9.792242e-09) (0.000000e+00 0.000000e+00 0.000000e+00))
0.095         	((2.293332e-01 1.696429e-08 5.092028e-21) (2.253727e-01 1.599477e-08 -1.022675e-21) (0.000000e+00 0.000000e+00 0.000000e+00)) ((2.628166e-20 7.673597e-21 -8.529842e-16) (-9.737840e-21 1.558949e-20 9.780190e-09) (0.000000e+00 0.000000e+00 0.000000e+00))
0.1           	((2.243599e-01 9.277686e-09 5.130054e-21) (2.202096e-01 1.869632e-08 -1.013567e-21) (0.000000e+00 0.000000e+00 0.000000e+00)) ((2.574027e-20 7.511543e-21 -1.189234e-15) (-9.520498e-21 1.523244e-20 1.566167e-08) (0.000000e+00 0.000000e+00 0.000000e+00))
0.105         	((2.197825e-01 1.323813e-08 5.163703e-21) (2.154445e-01 2.090567e-08 -1.004907e-21) (0.000000e+00 0.000000e+00 0.000000e+00)) ((2.524141e-20 7.362336e-21 -1.233093e-15) (-9.320340e-21 1.490289e-20 1.920350e-08) (0.000000e+00 0.000000e+00 0.000000e+00))
0.11          	((2.155515e-01 1.497056e-08 5.193722e-21) (2.110289e-01 2.221029e-08 -9.966729e-22) (0.000000e+00 0.000000e+00 0.000000e+00)) ((2.477976e-20 7.224360e-21 -1.260525e-15) (-9.135211e-21 1.459749e-20 2.129876e-08) (0.000000e+00 0.000000e+00 0.000000e+00))
0.115         	((2.116261e-01 1.589295e-08 5.220568e-21) (2.069225e-01 2.293360e-08 -9.888233e-22) (0.000000e+00 0.000000e+00 0.000000e+00)) ((2.435105e-20 7.096259e-21 -1.397141e-15) (-8.963379e-21 1.431349e-20 2.246733e-08) (0.000000e+00 0.000000e+00 0.000000e+00))
0.12          	((2.079728e-01 1.662986e-08 5.244562e-21) (2.030909e-01 2.326353e-08 -9.813209e-22) (0.000000e+00 0.000000e+00 0.000000e+00)) ((2.395165e-20 6.976999e-21 -1.341285e-15) (-8.803370e-21 1.404848e-20 2.302576e-08) (0.000000e+00 0.000000e+00 0.000000e+00))
0.125         	((2.045620e-01 1.738272e-08 5.266298e-21) (1.995050e-01 2.334205e-08 -9.741632e-22) (0.000000e+00 0.000000e+00 0.000000e+00)) ((2.357848e-20 6.865598e-21 -1.301406e-15) (-8.653901e-21 1.380046e-20 2.317491e-08) (0.000000e+00 0.000000e+00 0.000000e+00))
0.13          	((2.013694e-01 1.757780e-08 5.285688e-21) (1.961400e-01 2.322346e-08 -9.672827e-22) (0.000000e+00 0.000000e+00 0.000000e+00)) ((2.322883e-20 6.761257e-21 -1.257802e-15) (-8.513933e-21 1.356773e-20 2.304675e-08) (0.000000e+00 0.000000e+00 0.000000e+00))
0.135         	((1.983735e-01 1.778837e-08 5.303251e-21) (1.929741e-01 2.298269e-08 -9.606934e-22) (0.000000e+00 0.000000e+00 0.000000e+00)) ((2.290046e-20 6.663329e-21 -1.200905e-15) (-8.382510e-21 1.334875e-20 2.273039e-08) (0.000000e+00 0.000000e+00 0.000000e+00))
0.14          	((1.955555e-01 1.730833e-08 5.319094e-21) (1.899887e-01 2.264097e-08 -9.543619e-22) (0.000000e+00 0.000000e+00 0.000000e+00)) ((2.259137e-20 6.571184e-21 -1.191381e-15) (-8.258842e-21 1.314224e-20 2.228728e-08) (0.000000e+00 0.000000e+00 0.000000e+00))
0.145         	((1.928993e-01 1.762976e-08 5.333398e-21) (1.871674e-01 2.224337e-08 -9.482698e-22) (0.000000e+00 0.000000e+00 0.000000e+00)) ((2.229977e-20 6.484284e-21 -1.158092e-15) (-8.142220e-21 1.294707e-20 2.176036e-08) (0.000000e+00 0.000000e+00 0.000000e+00))
0.15          	((1.903905e-01 1.718923e-08 5.346379e-21) (1.844960e-01 2.181818e-08 -9.424036e-22) (0.000000e+00 0.000000e+00 0.000000e+00)) ((2.202407e-20 6.402144e-21 -1.165068e-15) (-8.032011e-21 1.276227e-20 2.118030e-08) (0.000000e+00 0.000000e+00 0.000000e+00))
0.155         	((1.880171e-01 1.702463e-08 5.357846e-21) (1.819617e-01 2.136903e-08 -9.367192e-22) (0.000000e+00 0.000000e+00 0.000000e+00)) ((2.176301e-20 6.324426e-21 -1.117488e-15) (-7.927705e-21 1.258693e-20 2.056891e-08) (0.000000e+00 0.000000e+00 0.000000e+00))
0.16          	((1.857669e-01 1.686124e-08 5.368441e-21) (1.795535e-01 2.089607e-08 -9.312599e-22) (0.000000e+00 0.000000e+00 0.000000e+00)) ((2.151538e-20 6.250677e-21 -1.097244e-15) (-7.828779e-21 1.242033e-20 1.994163e-08) (0.000000e+00 0.000000e+00 0.000000e+00))
0.165         	((1.836308e-01 1.664044e-08 5.377977e-21) (1.772613e-01 2.042965e-08 -9.259755e-22) (0.000000e+00 0.000000e+00 0.000000e+00)) ((2.128004e-20 6.180624e-21 -1.051461e-15) (-7.734816e-21 1.226174e-20 1.930958e-08) (0.000000e+00 0.000000e+00 0.000000e+00))
0.17          	((1.816000e-01 1.648207e-08 5.386536e-21) (1.750762e-01 1.996281e-08 -9.208600e-22) (0.000000e+00 0.000000e+00 0.000000e+00)) ((2.105623e-20 6.114029e-21 -1.016429e-15) (-7.645463e-21 1.211055e-20 1.868087e-08) (0.000000e+00 0.000000e+00 0.000000e+00))
0.175         	((1.796667e-01 1.622881e-08 5.394007e-21) (1.729903e-01 1.949714e-08 -9.158852e-22) (0.000000e+00 0.000000e+00 0.000000e+00)) ((2.084297e-20 6.050612e-21 -9.830005e-16) (-7.560374e-21 1.196622e-20 1.806117e-08) (0.000000e+00 0.000000e+00 0.000000e+00))
0.18          	((1.778227e-01 1.510082e-08 5.401508e-21) (1.709963e-01 1.903531e-08 -9.111393e-22) (0.000000e+00 0.000000e+00 0.000000e+00)) ((2.063957e-20 5.990066e-21 -9.054947e-16) (-7.479174e-21 1.182824e-20 1.745444e-08) (0.000000e+00 0.000000e+00 0.000000e+00))
0.185         	((1.760631e-01 1.530024e-08 5.407691e-21) (1.690880e-01 1.859245e-08 -9.064807e-22) (0.000000e+00 0.000000e+00 0.000000e+00)) ((2.044525e-20 5.932292e-21 -8.763044e-16) (-7.401676e-21 1.169617e-20 1.686340e-08) (0.000000e+00 0.000000e+00 0.000000e+00))
0.19          	((1.743813e-01 1.502892e-08 5.413254e-21) (1.672594e-01 1.814390e-08 -9.019611e-22) (0.000000e+00 0.000000e+00 0.000000e+00)) ((2.025940e-20 5.877043e-21 -8.490905e-16) (-7.327581e-21 1.156960e-20 1.628978e-08) (0.000000e+00 0.000000e+00 0.000000e+00))
0.195         	((1.727721e-01 1.479725e-08 5.418252e-21) (1.655052e-01 1.770873e-08 -8.975748e-22) (0.000000e+00 0.000000e+00 0.000000e+00)) ((2.008147e-20 5.824149e-21 -8.192342e-16) (-7.256659e-21 1.144819e-20 1.573477e-08) (0.000000e+00 0.000000e+00 0.000000e+00))
0.2           	((1.712309e-01 1.425283e-08 5.422719e-21) (1.638207e-01 1.729314e-08 -8.933117e-22) (0.000000e+00 0.000000e+00 0.000000e+00)) ((1.991097e-20 5.773473e-21 -8.588353e-16) (-7.188710e-21 1.133159e-20 1.519898e-08) (0.000000e+00 0.000000e+00 0.000000e+00))
0.205         	((1.697530e-01 1.377854e-08 5.426695e-21) (1.622014e-01 1.688184e-08 -8.891673e-22) (0.000000e+00 0.000000e+00 0.000000e+00)) ((1.974734e-20 5.724837e-21 -7.966061e-16) (-7.123541e-21 1.121951e-20 1.468264e-08) (0.000000e+00 0.000000e+00 0.000000e+00))
0.21          	((1.683342e-01 2.784220e-11 5.430203e-21) (1.606435e-01 2.013145e-08 -8.851321e-22) (0.000000e+00 0.000000e+00 0.000000e+00)) ((1.959018e-20 5.678134e-21 -8.781518e-16) (-7.060960e-21 1.111165e-20 1.674869e-08) (0.000000e+00 0.000000e+00 0.000000e+00))
0.215         	((1.669716e-01 4.921389e-09 5.433615e-21) (1.591431e-01 2.307766e-08 -8.812364e-22) (0.000000e+00 0.000000e+00 0.000000e+00)) ((1.943924e-20 5.633252e-21 -8.850003e-16) (-7.000824e-21 1.100778e-20 1.800568e-08) (0.000000e+00 0.000000e+00 0.000000e+00))
0.22          	((1.656631e-01 7.088469e-09 5.435563e-21) (1.576969e-01 2.507082e-08 -8.773317e-22) (0.000000e+00 0.000000e+00 0.000000e+00)) ((1.929401e-20 5.590175e-21 -8.636921e-16) (-6.943090e-21 1.090765e-20 1.875953e-08) (0.000000e+00 0.000000e+00 0.000000e+00))
0.225         	((1.644028e-01 7.507965e-09 5.438092e-21) (1.563017e-01 2.642191e-08 -8.736145e-22) (0.000000e+00 0.000000e+00 0.000000e+00)) ((1.915422e-20 5.548631e-21 -7.800711e-16) (-6.887447e-21 1.081104e-20 1.918499e-08) (0.000000e+00 0.000000e+00 0.000000e+00))
0.23          	((1.631882e-01 -3.830242e-09 5.440106e-21) (1.549551e-01 2.995800e-08 -8.699674e-22) (0.000000e+00 0.000000e+00 0.000000e+00)) ((1.901941e-20 5.508587e-21 -9.428053e-16) (-6.833825e-21 1.071779e-20 2.462376e-08) (0.000000e+00 0.000000e+00 0.000000e+00))
0.235         	((1.620194e-01 1.608244e-09 5.441719e-21) (1.536540e-01 3.312732e-08 -8.664020e-22) (0.000000e+00 0.000000e+00 0.000000e+00)) ((1.888959e-20 5.470031e-21 -1.013207e-15) (-6.782204e-21 1.062768e-20 2.836759e-08) (0.000000e+00 0.000000e+00 0.000000e+00))
0.24          	((1.608921e-01 4.573187e-09 5.443024e-21) (1.523959e-01 3.532570e-08 -8.629170e-22) (0.000000e+00 0.000000e+00 0.000000e+00)) ((1.876433e-20 5.432831e-21 -1.068190e-15) (-6.732406e-21 1.054054e-20 3.097709e-08) (0.000000e+00 0.000000e+00 0.000000e+00))
0.245         	((1.598044e-01 4.921964e-09 5.443958e-21) (1.511787e-01 3.684494e-08 -8.595022e-22) (0.000000e+00 0.000000e+00 0.000000e+00)) ((1.864339e-20 5.396926e-21 -9.460286e-16) (-6.684345e-21 1.045623e-20 3.279405e-08) (0.000000e+00 0.000000e+00 0.000000e+00))
0.25          	((1.587539e-01 7.540948e-09 5.444753e-21) (1.500002e-01 3.789597e-08 -8.561697e-22) (0.000000e+00 0.000000e+00 0.000000e+00)) ((1.852659e-20 5.362232e-21 -1.025536e-15) (-6.637916e-21 1.037459e-20 3.403801e-08) (0.000000e+00 0.000000e+00 0.000000e+00))
0.255         	((1.577391e-01 6.435268e-09 5.445098e-21) (1.488586e-01 3.855773e-08 -8.528922e-22) (0.000000e+00 0.000000e+00 0.000000e+00)) ((1.841354e-20 5.328698e-21 -9.642829e-16) (-6.593051e-21 1.029549e-20 3.485727e-08) (0.000000e+00 0.000000e+00 0.000000e+00))
0.26          	((1.567566e-01 8.078015e-09 5.446019e-21) (1.477520e-01 3.897128e-08 -8.497569e-22) (0.000000e+00 0.000000e+00 0.000000e+00)) ((1.830415e-20 5.296189e-21 -9.790294e-16) (-6.549580e-21 1.021883e-20 3.535631e-08) (0.000000e+00 0.000000e+00 0.000000e+00))
0.265         	((1.558069e-01 4.325658e-09 5.446050e-21) (1.466786e-01 3.911013e-08 -8.466250e-22) (0.000000e+00 0.000000e+00 0.000000e+00)) ((1.819821e-20 5.264763e-21 -1.263252e-15) (-6.507607e-21 1.014445e-20 3.560986e-08) (0.000000e+00 0.000000e+00 0.000000e+00))
0.27          	((1.548879e-01 6.707809e-09 5.445891e-21) (1.456370e-01 3.915097e-08 -8.435552e-22) (0.000000e+00 0.000000e+00 0.000000e+00)) ((1.809569e-20 5.234354e-21 -1.149677e-15) (-6.466964e-21 1.007227e-20 3.567413e-08) (0.000000e+00 0.000000e+00 0.000000e+00))
0.275         	((1.539977e-01 7.528486e-09 5.445596e-21) (1.446256e-01 3.907065e-08 -8.405497e-22) (0.000000e+00 0.000000e+00 0.000000e+00)) ((1.799631e-20 5.204879e-21 -1.135685e-15) (-6.427581e-21 1.000219e-20 3.559140e-08) (0.000000e+00 0.000000e+00 0.000000e+00))
0.28          	((1.531349e-01 6.316577e-09 5.445173e-21) (1.436431e-01 3.887116e-08 -8.376063e-22) (0.000000e+00 0.000000e+00 0.000000e+00)) ((1.789978e-20 5.176279e-21 -1.183598e-15) (-6.389404e-21 9.934098e-21 3.539394e-08) (0.000000e+00 0.000000e+00 0.000000e+00))
0.285         	((1.522984e-01 7.577162e-09 5.444650e-21) (1.426882e-01 3.861862e-08 -8.347233e-22) (0.000000e+00 0.000000e+00 0.000000e+00)) ((1.780627e-20 5.148552e-21 -1.138234e-15) (-6.352386e-21 9.867914e-21 3.510709e-08) (0.000000e+00 0.000000e+00 0.000000e+00))
0.29          	((1.514867e-01 8.229319e-09 5.444092e-21) (1.417596e-01 3.830498e-08 -8.319051e-22) (0.000000e+00 0.000000e+00 0.000000e+00)) ((1.771550e-20 5.121629e-21 -1.109924e-15) (-6.316450e-21 9.803550e-21 3.475041e-08) (0.000000e+00 0.000000e+00 0.000000e+00))
0.295         	((1.507007e-01 6.419627e-09 5.442533e-21) (1.408562e-01 3.792661e-08 -8.290469e-22) (0.000000e+00 0.000000e+00 0.000000e+00)) ((1.762744e-20 5.095584e-21 -1.040373e-15) (-6.281675e-21 9.740921e-21 3.433957e-08) (0.000000e+00 0.000000e+00 0.000000e+00))
0.3           	((1.499361e-01 7.039156e-09 5.441635e-21) (1.399770e-01 3.752071e-08 -8.263179e-22) (0.000000e+00 0.000000e+00 0.000000e+00)) ((1.754185e-20 5.070207e-21 -1.013320e-15) (-6.247811e-21 9.679961e-21 3.388737e-08) (0.000000e+00 0.000000e+00 0.000000e+00))
0.305         	((1.491936e-01 5.418301e-09 5.440516e-21) (1.391208e-01 3.709212e-08 -8.236246e-22) (0.000000e+00 0.000000e+00 0.000000e+00)) ((1.745868e-20 5.045552e-21 -8.551302e-16) (-6.214921e-21 9.620598e-21 3.340359e-08) (0.000000e+00 0.000000e+00 0.000000e+00))
0.31          	((1.484721e-01 5.698753e-09 5.439323e-21) (1.382868e-01 3.663468e-08 -8.209781e-22) (0.000000e+00 0.000000e+00 0.000000e+00)) ((1.737781e-20 5.021582e-21 -8.462691e-16) (-6.182953e-21 9.562766e-21 3.289633e-08) (0.000000e+00 0.000000e+00 0.000000e+00))
0.315         	((1.477709e-01 6.526430e-09 5.437950e-21) (1.374741e-01 3.616624e-08 -8.183688e-22) (0.000000e+00 0.000000e+00 0.000000e+00)) ((1.729916e-20 4.998279e-21 -8.290490e-16) (-6.151876e-21 9.506402e-21 3.237210e-08) (0.000000e+00 0.000000e+00 0.000000e+00))
0.32          	((1.470889e-01 6.128501e-09 5.436475e-21) (1.366817e-01 3.568630e-08 -8.158010e-22) (0.000000e+00 0.000000e+00 0.000000e+00)) ((1.722262e-20 4.975603e-21 -9.000565e-16) (-6.121644e-21 9.451449e-21 3.183622e-08) (0.000000e+00 0.000000e+00 0.000000e+00))
0.325         	((1.464256e-01 5.947200e-09 5.434782e-21) (1.359090e-01 3.518308e-08 -8.132627e-22) (0.000000e+00 0.000000e+00 0.000000e+00)) ((1.714812e-20 4.953546e-21 -7.360828e-16) (-6.092239e-21 9.397850e-21 3.129297e-08) (0.000000e+00 0.000000e+00 0.000000e+00))
0.33          	((1.457794e-01 6.254176e-09 5.433311e-21) (1.351551e-01 3.468521e-08 -8.107872e-22) (0.000000e+00 0.000000e+00 0.000000e+00)) ((1.707554e-20 4.932035e-21 -7.909651e-16) (-6.063579e-21 9.345555e-21 3.074598e-08) (0.000000e+00 0.000000e+00 0.000000e+00))
0.335         	((1.451509e-01 7.513207e-09 5.431495e-21) (1.344193e-01 3.419613e-08 -8.083279e-22) (0.000000e+00 0.000000e+00 0.000000e+00)) ((1.700487e-20 4.911112e-21 -7.632877e-16) (-6.035699e-21 9.294511e-21 3.019803e-08) (0.000000e+00 0.000000e+00 0.000000e+00))
0.34          	((1.445388e-01 8.116953e-09 5.429564e-21) (1.337010e-01 3.370408e-08 -8.058997e-22) (0.000000e+00 0.000000e+00 0.000000e+00)) ((1.693599e-20 4.890728e-21 -7.559374e-16) (-6.008543e-21 9.244673e-21 2.965134e-08) (0.000000e+00 0.000000e+00 0.000000e+00))
0.345         	((1.439426e-01 8.682273e-09 5.427508e-21) (1.329995e-01 3.321318e-08 -8.035002e-22) (0.000000e+00 0.000000e+00 0.000000e+00)) ((1.686887e-20 4.870869e-21 -7.398051e-16) (-5.982088e-21 9.195996e-21 2.910786e-08) (0.000000e+00 0.000000e+00 0.000000e+00))
0.35          	((1.433602e-01 8.205566e-09 5.425991e-21) (1.323141e-01 3.271642e-08 -8.011885e-22) (0.000000e+00 0.000000e+00 0.000000e+00)) ((1.680334e-20 4.851439e-21 -7.418897e-16) (-5.956217e-21 9.148439e-21 2.856911e-08) (0.000000e+00 0.000000e+00 0.000000e+00))
0.355         	((1.427928e-01 8.490722e-09 5.424219e-21) (1.316443e-01 3.224174e-08 -7.988913e-22) (0.000000e+00 0.000000e+00 0.000000e+00)) ((1.673945e-20 4.832507e-21 -5.558624e-16) (-5.931006e-21 9.101960e-21 2.803630e-08) (0.000000e+00 0.000000e+00 0.000000e+00))
0.36          	((1.422399e-01 9.881077e-09 5.422065e-21) (1.309896e-01 3.176822e-08 -7.966000e-22) (0.000000e+00 0.000000e+00 0.000000e+00)) ((1.667704e-20 4.814048e-21 -5.928376e-16) (-5.906448e-21 9.056519e-21 2.751062e-08) (0.000000e+00 0.000000e+00 0.000000e+00))
0.365         	((1.417009e-01 9.537799e-09 5.419759e-21) (1.303494e-01 3.129475e-08 -7.943281e-22) (0.000000e+00 0.000000e+00 0.000000e+00)) ((1.661614e-20 4.796058e-21 -6.568213e-16) (-5.882513e-21 9.012082e-21 2.699239e-08) (0.000000e+00 0.000000e+00 0.000000e+00))
0.37          	((1.411744e-01 9.425873e-09 5.417633e-21) (1.297232e-01 3.082185e-08 -7.921063e-22) (0.000000e+00 0.000000e+00 0.000000e+00)) ((1.655663e-20 4.778465e-21 -6.396339e-16) (-5.859116e-21 8.968616e-21 2.648256e-08) (0.000000e+00 0.000000e+00 0.000000e+00))
0.375         	((1.406605e-01 9.508591e-09 5.415446e-21) (1.291105e-01 3.034604e-08 -7.899126e-22) (0.000000e+00 0.000000e+00 0.000000e+00)) ((1.649850e-20 4.761285e-21 -5.900453e-16) (-5.836270e-21 8.926088e-21 2.598157e-08) (0.000000e+00 0.000000e+00 0.000000e+00))
0.38          	((1.401580e-01 9.574378e-09 5.413484e-21) (1.285109e-01 2.988304e-08 -7.877719e-22) (0.000000e+00 0.000000e+00 0.000000e+00)) ((1.644166e-20 4.744469e-21 -5.943230e-16) (-5.813918e-21 8.884465e-21 2.548957e-08) (0.000000e+00 0.000000e+00 0.000000e+00))
0.385         	((1.396689e-01 1.114342e-08 5.410750e-21) (1.279240e-01 2.945293e-08 -7.855880e-22) (0.000000e+00 0.000000e+00 0.000000e+00)) ((1.638619e-20 4.728116e-21 -6.104460e-16) (-5.792179e-21 8.843716e-21 2.500697e-08) (0.000000e+00 0.000000e+00 0.000000e+00))
0.39          	((1.391912e-01 1.034227e-08 5.408003e-21) (1.273493e-01 2.898603e-08 -7.834296e-22) (0.000000e+00 0.000000e+00 0.000000e+00)) ((1.633200e-20 4.712147e-21 -5.939804e-16) (-5.770945e-21 8.803810e-21 2.453399e-08) (0.000000e+00 0.000000e+00 0.000000e+00))
0.395         	((1.387232e-01 1.055779e-08 5.405723e-21) (1.267865e-01 2.853585e-08 -7.813463e-22) (0.000000e+00 0.000000e+00 0.000000e+00)) ((1.627888e-20 4.696464e-21 -5.661124e-16) (-5.750108e-21 8.764727e-21 2.407062e-08) (0.000000e+00 0.000000e+00 0.000000e+00))
0.4           	((1.382657e-01 1.088118e-08 5.403338e-21) (1.262351e-01 2.811213e-08 -7.792810e-22) (0.000000e+00 0.000000e+00 0.000000e+00)) ((1.622684e-20 4.681122e-21 -5.671026e-16) (-5.729743e-21 8.726438e-21 2.361705e-08) (0.000000e+00 0.000000e+00 0.000000e+00))
0.405         	((1.378186e-01 9.173261e-09 5.400887e-21) (1.256948e-01 2.769827e-08 -7.772356e-22) (0.000000e+00 0.000000e+00 0.000000e+00)) ((1.617600e-20 4.666132e-21 -7.004890e-16) (-5.709837e-21 8.688917e-21 2.317324e-08) (0.000000e+00 0.000000e+00 0.000000e+00))
0.41          	((1.373815e-01 9.352721e-09 5.398370e-21) (1.251652e-01 2.729290e-08 -7.752098e-22) (0.000000e+00 0.000000e+00 0.000000e+00)) ((1.612625e-20 4.651469e-21 -6.606883e-16) (-5.690366e-21 8.652138e-21 2.273932e-08) (0.000000e+00 0.000000e+00 0.000000e+00))
0.415         	((1.369539e-01 9.482726e-09 5.395822e-21) (1.246460e-01 2.688828e-08 -7.732057e-22) (0.000000e+00 0.000000e+00 0.000000e+00)) ((1.607755e-20 4.637119e-21 -6.431173e-16) (-5.671312e-21 8.616080e-21 2.231496e-08) (0.000000e+00 0.000000e+00 0.000000e+00))
0.42          	((1.365353e-01 9.518662e-09 5.393361e-21) (1.241370e-01 2.648881e-08 -7.712307e-22) (0.000000e+00 0.000000e+00 0.000000e+00)) ((1.602987e-20 4.623063e-21 -6.272173e-16) (-5.652655e-21 8.580720e-21 2.190007e-08) (0.000000e+00 0.000000e+00 0.000000e+00))
0.425         	((1.361259e-01 8.554545e-09 5.390767e-21) (1.236377e-01 2.610198e-08 -7.692691e-22) (0.000000e+00 0.000000e+00 0.000000e+00)) ((1.598317e-20 4.609313e-21 -5.717179e-16) (-5.634400e-21 8.546037e-21 2.149455e-08) (0.000000e+00 0.000000e+00 0.000000e+00))
0.43          	((1.357251e-01 4.967192e-09 5.388149e-21) (1.231479e-01 2.572092e-08 -7.673278e-22) (0.000000e+00 0.000000e+00 0.000000e+00)) ((1.593742e-20 4.595845e-21 -5.775787e-16) (-5.616522e-21 8.512011e-21 2.109834e-08) (0.000000e+00 0.000000e+00 0.000000e+00))
0.435         	((1.353328e-01 5.389260e-09 5.385507e-21) (1.226673e-01 2.533723e-08 -7.654061e-22) (0.000000e+00 0.000000e+00 0.000000e+00)) ((1.589260e-20 4.582654e-21 -5.407663e-16) (-5.599012e-21 8.478624e-21 2.071156e-08) (0.000000e+00 0.000000e+00 0.000000e+00))
0.44          	((1.349485e-01 5.897307e-09 5.382838e-21) (1.221956e-01 2.496040e-08 -7.635034e-22) (0.000000e+00 0.000000e+00 0.000000e+00)) ((1.584866e-20 4.569730e-21 -5.304694e-16) (-5.581860e-21 8.445856e-21 2.033362e-08) (0.000000e+00 0.000000e+00 0.000000e+00))
0.445         	((1.345722e-01 5.718008e-09 5.380153e-21) (1.217327e-01 2.459264e-08 -7.616194e-22) (0.000000e+00 0.000000e+00 0.000000e+00)) ((1.580559e-20 4.557066e-21 -5.429729e-16) (-5.565054e-21 8.413689e-21 1.996434e-08) (0.000000e+00 0.000000e+00 0.000000e+00))
0.45          	((1.342035e-01 7.204609e-09 5.377418e-21) (1.212782e-01 2.423795e-08 -7.597516e-22) (0.000000e+00 0.000000e+00 0.000000e+00)) ((1.576336e-20 4.544657e-21 -5.575524e-16) (-5.548587e-21 8.382108e-21 1.960357e-08) (0.000000e+00 0.000000e+00 0.000000e+00))
0.455         	((1.338426e-01 8.770690e-09 5.374545e-21) (1.208319e-01 2.390335e-08 -7.578919e-22) (0.000000e+00 0.000000e+00 0.000000e+00)) ((1.572197e-20 4.532508e-21 -5.317307e-16) (-5.532463e-21 8.351095e-21 1.925121e-08) (0.000000e+00 0.000000e+00 0.000000e+00))
0.46          	((1.334880e-01 7.848836e-09 5.371988e-21) (1.203935e-01 2.355561e-08 -7.560746e-22) (0.000000e+00 0.000000e+00 0.000000e+00)) ((1.568130e-20 4.520553e-21 -5.039553e-16) (-5.516606e-21 8.320635e-21 1.890691e-08) (0.000000e+00 0.000000e+00 0.000000e+00))
0.465         	((1.331417e-01 1.065296e-08 5.368971e-21) (1.199630e-01 2.323067e-08 -7.542410e-22) (0.000000e+00 0.000000e+00 0.000000e+00)) ((1.564149e-20 4.508887e-21 -5.177554e-16) (-5.501122e-21 8.290711e-21 1.857056e-08) (0.000000e+00 0.000000e+00 0.000000e+00))
0.47          	((1.328001e-01 8.396493e-09 5.366712e-21) (1.195399e-01 2.289640e-08 -7.524863e-22) (0.000000e+00 0.000000e+00 0.000000e+00)) ((1.560228e-20 4.497347e-21 -5.113995e-16) (-5.485823e-21 8.261312e-21 1.824192e-08) (0.000000e+00 0.000000e+00 0.000000e+00))
0.475         	((1.324660e-01 1.061658e-08 5.364092e-21) (1.191242e-01 2.257883e-08 -7.507214e-22) (0.000000e+00 0.000000e+00 0.000000e+00)) ((1.556385e-20 4.486065e-21 -5.518835e-16) (-5.470858e-21 8.232420e-21 1.792092e-08) (0.000000e+00 0.000000e+00 0.000000e+00))
0.48          	((1.321379e-01 1.106554e-08 5.361533e-21) (1.187156e-01 2.227393e-08 -7.489789e-22) (0.000000e+00 0.000000e+00 0.000000e+00)) ((1.552609e-20 4.474982e-21 -5.490589e-16) (-5.456158e-21 8.204024e-21 1.760729e-08) (0.000000e+00 0.000000e+00 0.000000e+00))
0.485         	((1.318170e-01 1.297493e-08 5.358644e-21) (1.183139e-01 2.197845e-08 -7.472246e-22) (0.000000e+00 0.000000e+00 0.000000e+00)) ((1.548907e-20 4.464146e-21 -5.237184e-16) (-5.441780e-21 8.176108e-21 1.730090e-08) (0.000000e+00 0.000000e+00 0.000000e+00))
0.49          	((1.315018e-01 1.331102e-08 5.355821e-21) (1.179191e-01 2.168397e-08 -7.454930e-22) (0.000000e+00 0.000000e+00 0.000000e+00)) ((1.545269e-20 4.453497e-21 -5.255113e-16) (-5.427652e-21 8.148663e-21 1.700152e-08) (0.000000e+00 0.000000e+00 0.000000e+00))
0.495         	((1.311928e-01 1.416884e-08 5.352964e-21) (1.175308e-01 2.139606e-08 -7.437730e-22) (0.000000e+00 0.000000e+00 0.000000e+00)) ((1.541698e-20 4.443052e-21 -5.037702e-16) (-5.413793e-21 8.121675e-21 1.670901e-08) (0.000000e+00 0.000000e+00 0.000000e+00))
0.5           	((1.308876e-01 9.448557e-10 5.350252e-21) (1.171493e-01 2.329973e-08 -7.420777e-22) (0.000000e+00 0.000000e+00 0.000000e+00)) ((1.538172e-20 4.432732e-21 -4.476988e-16) (-5.400106e-21 8.095156e-21 1.995985e-08) (0.000000e+00 0.000000e+00 0.000000e+00))
0.505         	((1.305898e-01 6.217046e-09 5.347461e-21) (1.167740e-01 2.533170e-08 -7.403949e-22) (0.000000e+00 0.000000e+00 0.000000e+00)) ((1.534725e-20 4.422654e-21 -4.974399e-16) (-5.386740e-21 8.069064e-21 2.241126e-08) (0.000000e+00 0.000000e+00 0.000000e+00))
0.51          	((1.302972e-01 8.548129e-09 5.344724e-21) (1.164047e-01 2.680597e-08 -7.387322e-22) (0.000000e+00 0.000000e+00 0.000000e+00)) ((1.531335e-20 4.412743e-21 -5.430874e-16) (-5.373593e-21 8.043394e-21 2.429834e-08) (0.000000e+00 0.000000e+00 0.000000e+00))
0.515         	((1.300095e-01 1.080685e-08 5.342070e-21) (1.160413e-01 2.791614e-08 -7.370935e-22) (0.000000e+00 0.000000e+00 0.000000e+00)) ((1.527999e-20 4.402993e-21 -5.875338e-16) (-5.360656e-21 8.018134e-21 2.576963e-08) (0.000000e+00 0.000000e+00 0.000000e+00))
0.52          	((1.297287e-01 1.507928e-08 5.338745e-21) (1.156837e-01 2.875128e-08 -7.354080e-22) (0.000000e+00 0.000000e+00 0.000000e+00)) ((1.524734e-20 4.393499e-21 -5.671091e-16) (-5.348050e-21 7.993275e-21 2.692366e-08) (0.000000e+00 0.000000e+00 0.000000e+00))
0.525         	((1.294519e-01 1.302839e-08 5.335892e-21) (1.153318e-01 2.932919e-08 -7.337695e-22) (0.000000e+00 0.000000e+00 0.000000e+00)) ((1.521518e-20 4.384117e-21 -5.688655e-16) (-5.335603e-21 7.968808e-21 2.783013e-08) (0.000000e+00 0.000000e+00 0.000000e+00))
0.53          	((1.291789e-01 2.631380e-10 5.333191e-21) (1.149854e-01 3.228034e-08 -7.321686e-22) (0.000000e+00 0.000000e+00 0.000000e+00)) ((1.518344e-20 4.374860e-21 -6.430452e-16) (-5.323304e-21 7.944726e-21 3.038649e-08) (0.000000e+00 0.000000e+00 0.000000e+00))
0.535         	((1.289113e-01 6.608359e-09 5.330385e-21) (1.146444e-01 3.521791e-08 -7.305715e-22) (0.000000e+00 0.000000e+00 0.000000e+00)) ((1.515226e-20 4.365775e-21 -6.502910e-16) (-5.311247e-21 7.921018e-21 3.227573e-08) (0.000000e+00 0.000000e+00 0.000000e+00))
0.54          	((1.286483e-01 9.365822e-09 5.327569e-21) (1.143086e-01 3.744834e-08 -7.289881e-22) (0.000000e+00 0.000000e+00 0.000000e+00)) ((1.512156e-20 4.356843e-21 -6.141917e-16) (-5.299402e-21 7.897671e-21 3.370805e-08) (0.000000e+00 0.000000e+00 0.000000e+00))
0.545         	((1.283901e-01 1.307738e-08 5.324682e-21) (1.139779e-01 3.918713e-08 -7.274109e-22) (0.000000e+00 0.000000e+00 0.000000e+00)) ((1.509142e-20 4.348082e-21 -6.394106e-16) (-5.287768e-21 7.874681e-21 3.480937e-08) (0.000000e+00 0.000000e+00 0.000000e+00))
0.55          	((1.281358e-01 1.388390e-08 5.321930e-21) (1.136523e-01 4.052605e-08 -7.258571e-22) (0.000000e+00 0.000000e+00 0.000000e+00)) ((1.506170e-20 4.339442e-21 -6.008984e-16) (-5.276293e-21 7.852040e-21 3.566036e-08) (0.000000e+00 0.000000e+00 0.000000e+00))
0.555         	((1.278861e-01 1.653730e-08 5.319112e-21) (1.133315e-01 4.155865e-08 -7.243109e-22) (0.000000e+00 0.000000e+00 0.000000e+00)) ((1.503248e-20 4.330954e-21 -5.941638e-16) (-5.265019e-21 7.829738e-21 3.631538e-08) (0.000000e+00 0.000000e+00 0.000000e+00))