# Probe 0 (2 -0.5 0)
# Probe 1 (2 0.5 0)
#       Probe             0             1
#        Time
       0.0025      -18.7566      -18.7537
        0.005       1.65775       1.65424
       0.0075    -0.0285539    -0.0280848
         0.01    -0.0558102    -0.0556204
       0.0125    -0.0607042    -0.0606066
        0.015    -0.0598179     -0.059765
       0.0175    -0.0570232    -0.0569831
         0.02    -0.0536123    -0.0535857
       0.0225    -0.0500652    -0.0500427
        0.025    -0.0466033    -0.0465861
       0.0275    -0.0433135    -0.0432994
         0.03    -0.0402323    -0.0402226
       0.0325    -0.0373503    -0.0373433
        0.035    -0.0346751    -0.0346721
       0.0375    -0.0321923    -0.0321913
         0.04     -0.029891    -0.0298905
       0.0425    -0.0277504    -0.0277501
        0.045    -0.0257534     -0.025754
       0.0475     -0.023894    -0.0238945
         0.05    -0.0221579    -0.0221587
       0.0525    -0.0205357    -0.0205372
        0.055    -0.0190195    -0.0190215
       0.0575    -0.0175975    -0.0176006
         0.06    -0.0162568    -0.0162605
       0.0625    -0.0149933    -0.0149973
        0.065    -0.0138131    -0.0138175
       0.0675    -0.0126969    -0.0127018
         0.07    -0.0116403    -0.0116458
       0.0725    -0.0106411    -0.0106464
        0.075   -0.00969322    -0.0096974
       0.0775   -0.00879194    -0.0087952
         0.08   -0.00793566   -0.00793854
       0.0825   -0.00712023   -0.00712346
        0.085   -0.00634512   -0.00634883
       0.0875   -0.00560875   -0.00561284
         0.09   -0.00490548   -0.00490992
       0.0925   -0.00423389   -0.00423812
        0.095   -0.00359185   -0.00359566
       0.0975   -0.00297876   -0.00298228
          0.1   -0.00238803   -0.00239173
       0.1025   -0.00182539    -0.0018292
        0.105   -0.00128447   -0.00128822
       0.1075  -0.000764675  -0.000769233
         0.11  -0.000264127  -0.000268357
       0.1125    0.00021662   0.000211959
        0.115   0.000675273   0.000671001
       0.1175    0.00111852      0.001115
         0.12    0.00154686    0.00154325
       0.1225     0.0019558      0.001952
        0.125    0.00234929     0.0023453
       0.1275    0.00273479    0.00273117
         0.13    0.00310589    0.00310316
       0.1325    0.00346358    0.00346091
        0.135    0.00380947    0.00380562
       0.1375    0.00414418    0.00414091
         0.14    0.00446632    0.00446308
       0.1425    0.00477713    0.00477394
        0.145    0.00507939    0.00507622
       0.1475    0.00537575    0.00537231
         0.15     0.0056614    0.00565792
       0.1525    0.00593894     0.0059357
        0.155    0.00620672    0.00620319
       0.1575     0.0064698     0.0064672
         0.16     0.0067228    0.00672016
       0.1625    0.00696368    0.00696178
        0.165    0.00719986     0.0071984
       0.1675    0.00743479    0.00743374
         0.17    0.00766259    0.00766134
       0.1725    0.00788172    0.00788058
        0.175    0.00809728    0.00809581
       0.1775    0.00830511    0.00830357
         0.18    0.00850795    0.00850572
       0.1825    0.00870595    0.00870367
        0.185    0.00889853    0.00889625
       0.1875    0.00908685    0.00908444
         0.19    0.00926849    0.00926623
       0.1925    0.00944758    0.00944545
        0.195     0.0096265    0.00962446
       0.1975    0.00979823    0.00979613
          0.2    0.00996382     0.0099617
       0.2025      0.010128     0.0101259
        0.205     0.0102835     0.0102814
       0.2075     0.0104364     0.0104343
         0.21     0.0105879     0.0105859
       0.2125     0.0107348      0.010733
        0.215     0.0108799     0.0108781
       0.2175     0.0110239     0.0110222
         0.22     0.0111639     0.0111623
       0.2225     0.0113006      0.011299
        0.225     0.0114335      0.011432
       0.2275     0.0115669     0.0115653
         0.23     0.0116948     0.0116932
       0.2325     0.0118206     0.0118189
        0.235     0.0119447     0.0119432
       0.2375     0.0120615     0.0120603
         0.24     0.0121758     0.0121751
       0.2425     0.0122899     0.0122896
        0.245     0.0124015     0.0124012
       0.2475     0.0125134     0.0125126
         0.25     0.0126214       0.01262
       0.2525     0.0127313       0.01273
        0.255     0.0128377     0.0128365
       0.2575     0.0129407     0.0129398
         0.26     0.0130424     0.0130418
       0.2625      0.013139     0.0131386
        0.265     0.0132371     0.0132365
       0.2675      0.013333     0.0133323
         0.27     0.0134288      0.013428
       0.2725     0.0135215     0.0135206
        0.275     0.0136137     0.0136133
       0.2775     0.0137055      0.013705
         0.28     0.0137921     0.0137915
       0.2825     0.0138778     0.0138768
        0.285     0.0139622     0.0139609
       0.2875      0.014047     0.0140459
         0.29      0.014129     0.0141282
       0.2925     0.0142076      0.014207
        0.295     0.0142874     0.0142868
       0.2975     0.0143655      0.014365
          0.3     0.0144429     0.0144424
       0.3025     0.0145206     0.0145202
        0.305      0.014595     0.0145945
       0.3075     0.0146715     0.0146708
         0.31     0.0147423     0.0147414
       0.3125     0.0148116     0.0148106
        0.315     0.0148772     0.0148761
       0.3175     0.0149444     0.0149431
         0.32     0.0150127     0.0150115
       0.3225     0.0150794     0.0150786
        0.325     0.0151424     0.0151418
       0.3275     0.0152076     0.0152071
         0.33     0.0152707     0.0152704
       0.3325     0.0153358     0.0153354
        0.335     0.0153998     0.0153994
       0.3375     0.0154614     0.0154611
         0.34      0.015522     0.0155216
       0.3425     0.0155812     0.0155808
        0.345      0.015641     0.0156406
       0.3475     0.0157005     0.0157002
         0.35     0.0157574     0.0157571
       0.3525     0.0158141     0.0158138
        0.355     0.0158698     0.0158693
       0.3575      0.015924     0.0159235
         0.36      0.015978     0.0159775
       0.3625     0.0160313     0.0160306
        0.365     0.0160837      0.016083
       0.3675     0.0161357     0.0161348
         0.37      0.016186     0.0161854
       0.3725     0.0162359     0.0162354
        0.375     0.0162874     0.0162869
       0.3775     0.0163388     0.0163385
         0.38      0.016387     0.0163867
       0.3825     0.0164361     0.0164357
        0.385     0.0164833      0.016483
       0.3875     0.0165299     0.0165295
         0.39     0.0165783     0.0165778
       0.3925     0.0166258     0.0166254
        0.395     0.0166733     0.0166732
       0.3975     0.0167123     0.0167122
          0.4     0.0167549     0.0167548
       0.4025     0.0167985     0.0167982
        0.405     0.0168433     0.0168431
       0.4075     0.0168868     0.0168866
         0.41     0.0169295     0.0169292
       0.4125     0.0169714      0.016971
        0.415     0.0170129     0.0170125
       0.4175     0.0170523     0.0170518
         0.42     0.0170927     0.0170922
       0.4225     0.0171326     0.0171321
        0.425     0.0171718     0.0171713
       0.4275     0.0172102     0.0172099
         0.43     0.0172499     0.0172497
       0.4325     0.0172895     0.0172895
        0.435     0.0173274     0.0173274
       0.4375     0.0173649     0.0173649
         0.44     0.0174018     0.0174019
       0.4425     0.0174395     0.0174395
        0.445     0.0174777     0.0174777
       0.4475     0.0175139     0.0175137
         0.45     0.0175535     0.0175531
       0.4525      0.017596     0.0175953
        0.455     0.0176256     0.0176249
       0.4575     0.0176528     0.0176522
         0.46     0.0176859     0.0176853
       0.4625     0.0177185     0.0177179
        0.465     0.0177513     0.0177507
       0.4675     0.0177846     0.0177841
         0.47     0.0178156     0.0178151
       0.4725     0.0178521     0.0178516
        0.475     0.0178864     0.0178859
       0.4775     0.0179165     0.0179161
         0.48     0.0179499     0.0179495
       0.4825     0.0179813     0.0179807
        0.485     0.0180146     0.0180138
       0.4875     0.0180419     0.0180412
         0.49     0.0180755     0.0180748
       0.4925     0.0181082     0.0181079
        0.495     0.0181406     0.0181406
       0.4975     0.0181664     0.0181666
          0.5      0.018193     0.0181931
       0.5025     0.0182228     0.0182228
        0.505     0.0182543     0.0182543
       0.5075     0.0182855     0.0182855
         0.51     0.0183173     0.0183173
       0.5125     0.0183483     0.0183484
        0.515     0.0183754     0.0183755
       0.5175     0.0184046     0.0184045
         0.52     0.0184334     0.0184333
       0.5225     0.0184617     0.0184615
        0.525     0.0184897     0.0184893
       0.5275     0.0185192     0.0185187
         0.53     0.0185485      0.018548
       0.5325     0.0185745      0.018574
        0.535      0.018604     0.0186035
       0.5375     0.0186329     0.0186324
         0.54       0.01866     0.0186596
       0.5425     0.0186849     0.0186844
        0.545     0.0187112     0.0187107
       0.5475      0.018738     0.0187376
         0.55      0.018765     0.0187645
       0.5525     0.0187919     0.0187915
        0.555     0.0188188     0.0188184
       0.5575     0.0188451     0.0188447
         0.56     0.0188713     0.0188708
       0.5625     0.0188986     0.0188982
        0.565     0.0189255     0.0189252
       0.5675     0.0189527     0.0189523
         0.57     0.0189793     0.0189789
       0.5725      0.019007     0.0190067
        0.575     0.0190377     0.0190373
       0.5775     0.0190681     0.0190679
         0.58     0.0190886     0.0190884
       0.5825     0.0191106     0.0191106
        0.585     0.0191275     0.0191276
       0.5875     0.0191531     0.0191531
         0.59     0.0191812     0.0191812
       0.5925     0.0191994     0.0191994
        0.595     0.0192255     0.0192255
       0.5975     0.0192548     0.0192548
          0.6     0.0192748     0.0192747
       0.6025     0.0193006     0.0193004
        0.605     0.0193266     0.0193264
       0.6075     0.0193526     0.0193523
         0.61     0.0193811     0.0193806
       0.6125     0.0194002     0.0193998
        0.615     0.0194266     0.0194263
       0.6175     0.0194476     0.0194474
         0.62     0.0194716     0.0194714
       0.6225      0.019498      0.019498
        0.625      0.019521     0.0195209
       0.6275     0.0195427     0.0195426
         0.63     0.0195663     0.0195664
       0.6325     0.0195925     0.0195926
        0.635     0.0196193     0.0196192
       0.6375     0.0196449     0.0196448
         0.64     0.0196702     0.0196702
       0.6425     0.0196956     0.0196955
        0.645     0.0197141     0.0197142
       0.6475     0.0197382      0.019738
         0.65     0.0197637     0.0197636
       0.6525     0.0197884     0.0197883
        0.655     0.0198123     0.0198123
       0.6575     0.0198361     0.0198357
         0.66     0.0198607     0.0198601
       0.6625     0.0198864     0.0198861
        0.665     0.0199117     0.0199115
       0.6675     0.0199316     0.0199312
         0.67      0.019955     0.0199545
       0.6725     0.0199791     0.0199784
        0.675     0.0200046     0.0200039
       0.6775     0.0200283     0.0200279
         0.68     0.0200515     0.0200511
       0.6825     0.0200766     0.0200762
        0.685     0.0201042     0.0201038
       0.6875     0.0201316     0.0201312
         0.69     0.0201553      0.020155
       0.6925     0.0201793      0.020179
        0.695     0.0201978     0.0201976
       0.6975     0.0202242      0.020224
          0.7     0.0202547     0.0202546
       0.7025     0.0202895     0.0202892
        0.705     0.0203056     0.0203054
       0.7075     0.0203159     0.0203156
         0.71     0.0203459     0.0203456
       0.7125     0.0203556     0.0203553
        0.715     0.0203821     0.0203818
       0.7175     0.0204138     0.0204135
         0.72     0.0204275     0.0204273
       0.7225     0.0204478     0.0204477
        0.725     0.0204733     0.0204732
       0.7275     0.0204994     0.0204994
         0.73      0.020533      0.020533
       0.7325     0.0205439     0.0205438
        0.735     0.0205692      0.020569
       0.7375     0.0205946     0.0205944
         0.74     0.0206202     0.0206199
       0.7425     0.0206474     0.0206472
        0.745     0.0206798     0.0206797
       0.7475     0.0206901       0.02069
         0.75     0.0207141     0.0207141
       0.7525     0.0207388     0.0207389
        0.755     0.0207639     0.0207639
       0.7575     0.0207907     0.0207906
         0.76     0.0208189     0.0208187
       0.7625     0.0208438     0.0208436
        0.765     0.0208744     0.0208742
       0.7675     0.0208855     0.0208852
         0.77      0.020912     0.0209116
       0.7725     0.0209384     0.0209381
        0.775     0.0209624     0.0209621
       0.7775      0.020986     0.0209857
         0.78     0.0210112     0.0210109
       0.7825     0.0210387     0.0210384
        0.785     0.0210646     0.0210644
       0.7875     0.0210912     0.0210911
         0.79     0.0211227     0.0211226
       0.7925     0.0211354     0.0211353
        0.795     0.0211596     0.0211594
       0.7975     0.0211859     0.0211858
          0.8     0.0212111      0.021211
       0.8025     0.0212366     0.0212364
        0.805     0.0212623     0.0212621
       0.8075     0.0212897     0.0212895
         0.81     0.0213163     0.0213161
       0.8125     0.0213416     0.0213414
        0.815     0.0213699     0.0213697
       0.8175     0.0213965     0.0213963
         0.82     0.0214247     0.0214245
       0.8225     0.0214555     0.0214554
        0.825     0.0214732     0.0214731
       0.8275     0.0215034     0.0215034
         0.83     0.0215469     0.0215471
       0.8325     0.0215594     0.0215595
        0.835     0.0215864      0.021586
       0.8375     0.0215983     0.0215978
         0.84     0.0216329     0.0216322
       0.8425     0.0216504     0.0216496
        0.845     0.0216706     0.0216698
       0.8475     0.0216982     0.0216973
         0.85     0.0217265     0.0217255
       0.8525     0.0217664     0.0217655
        0.855     0.0217747     0.0217742
       0.8575     0.0218023     0.0218018
         0.86     0.0218305       0.02183
       0.8625     0.0218609     0.0218603
        0.865     0.0218938     0.0218934
       0.8675     0.0219245     0.0219244
         0.87     0.0219315     0.0219314
       0.8725     0.0219591      0.021959
        0.875     0.0219872     0.0219872
       0.8775     0.0220154     0.0220154
         0.88      0.022044     0.0220441
       0.8825     0.0220733     0.0220734
        0.885     0.0221007     0.0221008
       0.8875     0.0221382     0.0221382
         0.89     0.0221508     0.0221508
       0.8925     0.0221773     0.0221772
        0.895     0.0222057     0.0222056
       0.8975     0.0222337     0.0222337
          0.9     0.0222616     0.0222617
       0.9025     0.0222905     0.0222905
        0.905     0.0223201       0.02232
       0.9075      0.022349     0.0223488
         0.91     0.0223784     0.0223781
       0.9125     0.0224093     0.0224091
        0.915     0.0224462      0.022446
       0.9175     0.0224577     0.0224575
         0.92     0.0224896     0.0224893
       0.9225      0.022512     0.0225117
        0.925     0.0225402     0.0225398
       0.9275     0.0225699     0.0225694
         0.93     0.0225995     0.0225992
       0.9325     0.0226288     0.0226285
        0.935     0.0226603     0.0226601
       0.9375     0.0226891     0.0226887
         0.94      0.022715     0.0227147
       0.9425     0.0227444     0.0227441
        0.945     0.0227742     0.0227739
       0.9475     0.0228077     0.0228075
         0.95     0.0228432     0.0228429
       0.9525     0.0228572     0.0228569
        0.955     0.0228884     0.0228881
       0.9575     0.0229199     0.0229196
         0.96     0.0229516     0.0229513
       0.9625     0.0229856     0.0229853
        0.965     0.0230334     0.0230331
       0.9675     0.0230471     0.0230468
         0.97     0.0230925     0.0230922
       0.9725      0.023091     0.0230908
        0.975     0.0231217     0.0231214
       0.9775     0.0231564     0.0231562
         0.98     0.0231986     0.0231984
       0.9825     0.0232055     0.0232053
        0.985     0.0232387     0.0232384
       0.9875     0.0232697     0.0232695
         0.99     0.0233025     0.0233023
       0.9925     0.0233424     0.0233421
        0.995     0.0233838     0.0233835
       0.9975     0.0233778     0.0233776
            1     0.0234112     0.0234109
       1.0025      0.023444     0.0234438
        1.005     0.0234729     0.0234728
       1.0075     0.0235055     0.0235053
         1.01     0.0235383     0.0235382
       1.0125      0.023575     0.0235749
        1.015     0.0236159      0.023616
       1.0175     0.0236224     0.0236223
         1.02     0.0236547     0.0236542
       1.0225     0.0236873     0.0236868
        1.025     0.0237201     0.0237196
       1.0275     0.0237523     0.0237519
         1.03     0.0237839     0.0237836
       1.0325     0.0238161     0.0238159
        1.035     0.0238487     0.0238484
       1.0375     0.0238826      0.023882
         1.04       0.02392     0.0239194
       1.0425     0.0239585     0.0239579
        1.045     0.0239675     0.0239668
       1.0475     0.0240006     0.0240002
         1.05     0.0240331     0.0240329
       1.0525     0.0240663     0.0240662
        1.055     0.0241057     0.0241056
       1.0575     0.0241252     0.0241251
         1.06     0.0241567     0.0241564
       1.0625       0.02419     0.0241896
        1.065     0.0242234     0.0242231
       1.0675     0.0242562     0.0242559
         1.07     0.0242901     0.0242897
       1.0725     0.0243239     0.0243235
        1.075     0.0243596     0.0243593
       1.0775     0.0244054      0.024405
         1.08     0.0244117     0.0244114
       1.0825     0.0244453     0.0244449
        1.085      0.024479     0.0244787
       1.0875     0.0245132     0.0245129
         1.09     0.0245472     0.0245469
       1.0925     0.0245781     0.0245776
        1.095      0.024611     0.0246106
       1.0975     0.0246449     0.0246444
          1.1     0.0246784     0.0246781
       1.1025     0.0247133      0.024713
        1.105     0.0247488     0.0247488
       1.1075     0.0247898     0.0247898
         1.11     0.0248436     0.0248436
       1.1125      0.024851     0.0248509
        1.115     0.0249079     0.0249078
       1.1175     0.0249069     0.0249068
         1.12     0.0249413     0.0249412
       1.1225     0.0249776     0.0249775
        1.125     0.0250271      0.025027
       1.1275     0.0250569     0.0250568
         1.13     0.0250567     0.0250566
       1.1325     0.0250916     0.0250915
        1.135     0.0251259     0.0251258
       1.1375     0.0251613     0.0251612
         1.14     0.0251972     0.0251971
       1.1425      0.025233     0.0252329
        1.145     0.0252719     0.0252718
       1.1475     0.0253124     0.0253122
         1.15     0.0253231     0.0253229
       1.1525     0.0253574     0.0253572
        1.155     0.0253924     0.0253922
       1.1575     0.0254281     0.0254279
         1.16     0.0254629     0.0254626
       1.1625      0.025498     0.0254978
        1.165     0.0255334     0.0255332
       1.1675     0.0255695     0.0255692
         1.17      0.025607     0.0256068
       1.1725     0.0256565     0.0256563
        1.175     0.0256698     0.0256696
       1.1775      0.025698     0.0256978
         1.18     0.0257334     0.0257333
       1.1825     0.0257696     0.0257696
        1.185     0.0258063     0.0258062
       1.1875      0.025847     0.0258468
         1.19     0.0258805     0.0258802
       1.1925     0.0258996     0.0258992
        1.195     0.0259329     0.0259325
       1.1975     0.0259697     0.0259693
          1.2     0.0260056     0.0260052
       1.2025     0.0260422     0.0260418
        1.205      0.026079     0.0260787
       1.2075     0.0261191      0.026119
         1.21     0.0261681     0.0261678
       1.2125     0.0261719     0.0261714
        1.215     0.0262067     0.0262061
       1.2175     0.0262421     0.0262415
         1.22     0.0262769     0.0262763
       1.2225     0.0263118     0.0263112
        1.225     0.0263474     0.0263469
       1.2275      0.026383     0.0263825
         1.23     0.0264183     0.0264178
       1.2325     0.0264548     0.0264543
        1.235     0.0264889     0.0264881
       1.2375     0.0265252     0.0265243
         1.24      0.026559     0.0265581
       1.2425      0.026595     0.0265941
        1.245     0.0266307     0.0266302
       1.2475     0.0266667     0.0266662
         1.25     0.0267028     0.0267026
       1.2525       0.02674     0.0267398
        1.255      0.026779     0.0267789
       1.2575     0.0268305     0.0268304
         1.26     0.0268466     0.0268463
       1.2625     0.0268909     0.0268907
        1.265     0.0269115     0.0269111
       1.2675     0.0269433     0.0269429
         1.27     0.0269904     0.0269899
       1.2725      0.027016     0.0270156
        1.275      0.027044     0.0270438
       1.2775     0.0270862     0.0270862
         1.28     0.0271069     0.0271069
       1.2825      0.027144      0.027144
        1.285     0.0271851     0.0271851
       1.2875     0.0272407     0.0272407
         1.29     0.0272405     0.0272405
       1.2925     0.0272763     0.0272762
        1.295      0.027312     0.0273119
       1.2975     0.0273481      0.027348
          1.3     0.0273852     0.0273851
       1.3025     0.0274222     0.0274221
        1.305     0.0274586     0.0274585
       1.3075      0.027497     0.0274969
         1.31     0.0275391      0.027539
       1.3125     0.0275918     0.0275917
        1.315     0.0275927     0.0275926
       1.3175     0.0276298     0.0276296
         1.32     0.0276682     0.0276679
       1.3225     0.0277136     0.0277134
        1.325     0.0277399     0.0277395
       1.3275     0.0277588     0.0277584
         1.33     0.0277954      0.027795
       1.3325     0.0278326     0.0278323
        1.335     0.0278697     0.0278694
       1.3375     0.0279043      0.027904
         1.34     0.0279408     0.0279405
       1.3425     0.0279781     0.0279779
        1.345     0.0280195     0.0280194
       1.3475     0.0280763      0.028076
         1.35      0.028073     0.0280725
       1.3525     0.0281081     0.0281076
        1.355     0.0281436     0.0281432
       1.3575     0.0281778     0.0281774
         1.36     0.0282136     0.0282131
       1.3625     0.0282487     0.0282482
        1.365     0.0282846     0.0282841
       1.3675     0.0283198     0.0283192
         1.37     0.0283551     0.0283546
       1.3725       0.02839     0.0283895
        1.375     0.0284257     0.0284252
       1.3775     0.0284612     0.0284606
         1.38     0.0284964     0.0284959
       1.3825     0.0285315     0.0285311
        1.385     0.0285672     0.0285668
       1.3875     0.0286025     0.0286021
         1.39     0.0286391     0.0286387
       1.3925     0.0286777     0.0286773
        1.395     0.0287282      0.028728
       1.3975     0.0287415     0.0287413
          1.4     0.0287665     0.0287665
       1.4025     0.0288016     0.0288017
        1.405     0.0288363     0.0288363
       1.4075     0.0288723     0.0288722
         1.41     0.0289099     0.0289099
       1.4125      0.028953      0.028953
        1.415     0.0289881      0.028988
       1.4175     0.0289937     0.0289936
         1.42     0.0290289     0.0290289
       1.4225     0.0290658     0.0290659
        1.425     0.0291034     0.0291033
       1.4275     0.0291441     0.0291439
         1.43     0.0292084     0.0292079
       1.4325      0.029202     0.0292016
        1.435     0.0292391     0.0292386
       1.4375     0.0292796     0.0292792
         1.44     0.0293412     0.0293409
       1.4425     0.0293316     0.0293311
        1.445     0.0293658     0.0293653
       1.4475     0.0294006     0.0294001
         1.45     0.0294365     0.0294358
       1.4525     0.0294718     0.0294711
        1.455     0.0295078     0.0295071
       1.4575      0.029549     0.0295484
         1.46      0.029619     0.0296184
       1.4625     0.0296172     0.0296166
        1.465     0.0296171     0.0296164
       1.4675     0.0296503     0.0296497
         1.47     0.0296837      0.029683
       1.4725     0.0297176     0.0297169
        1.475     0.0297518     0.0297513
       1.4775     0.0297867     0.0297862
         1.48     0.0298192      0.029819
       1.4825     0.0298529     0.0298526
        1.485     0.0298859     0.0298856
       1.4875     0.0299204     0.0299201
         1.49     0.0299575     0.0299571
       1.4925     0.0300099     0.0300095
        1.495      0.030016     0.0300156
       1.4975     0.0300387     0.0300382
          1.5      0.030071     0.0300707
       1.5025     0.0301027     0.0301026
        1.505     0.0301347     0.0301345
       1.5075     0.0301673      0.030167
         1.51      0.030198     0.0301978
       1.5125     0.0302298     0.0302294
        1.515     0.0302622     0.0302617
       1.5175     0.0302942     0.0302937
         1.52     0.0303263     0.0303258
       1.5225     0.0303577     0.0303573
        1.525       0.03039     0.0303896
       1.5275     0.0304244     0.0304236
         1.53     0.0304536     0.0304531
       1.5325      0.030486     0.0304856
        1.535     0.0305196     0.0305191
       1.5375     0.0305565     0.0305559
         1.54     0.0306189     0.0306183
       1.5425      0.030601     0.0306004
        1.545     0.0306343     0.0306338
       1.5475     0.0306723     0.0306718
         1.55     0.0306922     0.0306916
       1.5525     0.0307287     0.0307281
        1.555     0.0307265      0.030726
       1.5575     0.0307575      0.030757
         1.56     0.0307888     0.0307884
       1.5625     0.0308191     0.0308188
        1.565     0.0308488     0.0308488
       1.5675      0.030879     0.0308789
         1.57     0.0309089     0.0309087
       1.5725     0.0309386     0.0309384
        1.575     0.0309687     0.0309682
       1.5775     0.0309981     0.0309977
         1.58     0.0310248     0.0310243
       1.5825     0.0310534      0.031053
        1.585     0.0310821     0.0310815
       1.5875     0.0311106     0.0311101
         1.59     0.0311399     0.0311393
       1.5925     0.0311692     0.0311686
        1.595     0.0311985     0.0311978
       1.5975     0.0312283     0.0312276
          1.6     0.0312572     0.0312566
       1.6025      0.031291     0.0312904
        1.605     0.0313452     0.0313446
       1.6075     0.0313226     0.0313221
         1.61     0.0313571     0.0313566
       1.6125     0.0313733     0.0313728
        1.615     0.0314002     0.0313997
       1.6175     0.0314276      0.031427
         1.62     0.0314552     0.0314546
       1.6225     0.0314842     0.0314836
        1.625     0.0315074     0.0315068
       1.6275     0.0315305       0.03153
         1.63     0.0315558     0.0315554
       1.6325     0.0315808     0.0315805
        1.635     0.0316079     0.0316076
       1.6375      0.031633     0.0316328
         1.64     0.0316571     0.0316568
       1.6425     0.0316821     0.0316818
        1.645     0.0317073     0.0317071
       1.6475     0.0317341     0.0317338
         1.65     0.0317694      0.031769
       1.6525     0.0317817     0.0317812
        1.655     0.0318038     0.0318034
       1.6575     0.0318275     0.0318271
         1.66     0.0318513     0.0318508
       1.6625     0.0318751     0.0318746
        1.665     0.0318988     0.0318984
       1.6675     0.0319226     0.0319223
         1.67     0.0319467     0.0319463
       1.6725     0.0319701     0.0319697
        1.675     0.0319942     0.0319938
       1.6775     0.0320188     0.0320184
         1.68     0.0320468     0.0320464
       1.6825     0.0320762     0.0320757
        1.685     0.0320732     0.0320728
       1.6875     0.0320967     0.0320964
         1.69     0.0321241     0.0321236
       1.6925     0.0321612     0.0321609
        1.695     0.0322004     0.0321999
       1.6975     0.0321629     0.0321625
          1.7     0.0321816     0.0321812
       1.7025     0.0322016     0.0322013
        1.705     0.0322201     0.0322197
       1.7075     0.0322454     0.0322451
         1.71     0.0322649     0.0322645
       1.7125     0.0322851     0.0322846
        1.715     0.0323049     0.0323044
       1.7175     0.0323258     0.0323252
         1.72     0.0323457      0.032345
       1.7225     0.0323647     0.0323643
        1.725      0.032384     0.0323835
       1.7275     0.0324027     0.0324022
         1.73     0.0324218     0.0324211
       1.7325     0.0324407       0.03244
        1.735       0.03246     0.0324586
       1.7375      0.032477     0.0324762
         1.74      0.032495     0.0324941
       1.7425     0.0325128      0.032512
        1.745     0.0325307     0.0325299
       1.7475     0.0325499     0.0325487
         1.75     0.0325667      0.032566
       1.7525     0.0325867     0.0325859
        1.755     0.0326168     0.0326161
       1.7575     0.0326224     0.0326217
         1.76     0.0326236     0.0326228
       1.7625     0.0326383     0.0326375
        1.765     0.0326537      0.032653
       1.7675      0.032668     0.0326673
         1.77      0.032683     0.0326822
       1.7725     0.0326981     0.0326973
        1.775      0.032713     0.0327122
       1.7775     0.0327278      0.032727