# Probe 0 (2 -0.5 0)
# Probe 1 (2 0.5 0)
#       Probe             0             1
#        Time
       0.0025             (0.951305 0.0431602 -2.8051e-18)             (0.95131 -0.0431726 1.80561e-18)
        0.005             (0.954227 0.0292741 2.48886e-19)             (0.954226 -0.0292716 -1.60506e-19)
       0.0075             (0.954299 0.0292598 -4.45461e-21)             (0.954298 -0.0292593 2.8861e-21)
         0.01             (0.954323 0.0292279 -8.54097e-21)             (0.954322 -0.0292282 5.54746e-21)
       0.0125             (0.954318 0.0292115 -9.26205e-21)             (0.954318 -0.0292121 6.01684e-21)
        0.015             (0.954297 0.0292106 -9.11539e-21)             (0.954296 -0.0292113 5.922e-21)
       0.0175             (0.954262 0.0292233 -8.68343e-21)             (0.954262 -0.0292241 5.64046e-21)
         0.02             (0.954218 0.0292476 -8.16035e-21)             (0.954218 -0.0292485 5.30066e-21)
       0.0225             (0.954167 0.0292816 -7.61812e-21)             (0.954167 -0.0292826 4.94799e-21)
        0.025             (0.95411 0.0293237 -7.08982e-21)             (0.95411 -0.0293247 4.60479e-21)
       0.0275             (0.954048 0.0293725 -6.5884e-21)             (0.954048 -0.0293735 4.27906e-21)
         0.03             (0.953982 0.0294268 -6.11917e-21)             (0.953982 -0.0294279 3.97449e-21)
       0.0325             (0.953913 0.0294857 -5.68055e-21)             (0.953913 -0.0294867 3.68974e-21)
        0.035             (0.953841 0.0295483 -5.27361e-21)             (0.953841 -0.0295494 3.42575e-21)
       0.0375             (0.953767 0.0296141 -4.89611e-21)             (0.953767 -0.0296151 3.18075e-21)
         0.04             (0.953691 0.0296824 -4.54634e-21)             (0.953691 -0.0296834 2.95365e-21)
       0.0425             (0.953613 0.0297529 -4.22112e-21)             (0.953613 -0.0297539 2.74249e-21)
        0.045             (0.953534 0.0298252 -3.91779e-21)             (0.953534 -0.0298262 2.54564e-21)
       0.0475             (0.953453 0.0298989 -3.63543e-21)             (0.953454 -0.0298999 2.36233e-21)
         0.05             (0.953372 0.0299737 -3.37187e-21)             (0.953372 -0.0299747 2.19128e-21)
       0.0525             (0.953289 0.0300496 -3.12566e-21)             (0.95329 -0.0300506 2.03154e-21)
        0.055             (0.953206 0.0301262 -2.8956e-21)             (0.953207 -0.0301272 1.88231e-21)
       0.0575             (0.953122 0.0302034 -2.67988e-21)             (0.953123 -0.0302045 1.74243e-21)
         0.06             (0.953038 0.0302812 -2.47652e-21)             (0.953039 -0.0302822 1.61053e-21)
       0.0625             (0.952953 0.0303593 -2.28491e-21)             (0.952954 -0.0303603 1.48625e-21)
        0.065             (0.952867 0.0304378 -2.106e-21)             (0.952868 -0.0304388 1.37023e-21)
       0.0675             (0.952782 0.0305165 -1.93682e-21)             (0.952782 -0.0305174 1.26054e-21)
         0.07             (0.952696 0.0305952 -1.77669e-21)             (0.952696 -0.0305962 1.15675e-21)
       0.0725             (0.952609 0.0306741 -1.6253e-21)             (0.95261 -0.0306751 1.05855e-21)
        0.075             (0.952522 0.030753 -1.48169e-21)             (0.952523 -0.030754 9.65317e-22)
       0.0775             (0.952436 0.0308319 -1.34518e-21)             (0.952436 -0.0308328 8.76711e-22)
         0.08             (0.952348 0.0309107 -1.2155e-21)             (0.952349 -0.0309116 7.92602e-22)
       0.0825             (0.952261 0.0309894 -1.09204e-21)             (0.952262 -0.0309903 7.12596e-22)
        0.085             (0.952174 0.0310679 -9.74697e-22)             (0.952175 -0.0310688 6.3658e-22)
       0.0875             (0.952087 0.0311464 -8.63243e-22)             (0.952087 -0.0311472 5.64377e-22)
         0.09             (0.951999 0.0312246 -7.56815e-22)             (0.952 -0.0312255 4.95435e-22)
       0.0925             (0.951912 0.0313027 -6.55196e-22)             (0.951912 -0.0313035 4.29559e-22)
        0.095             (0.951824 0.0313806 -5.58078e-22)             (0.951825 -0.0313814 3.6659e-22)
       0.0975             (0.951736 0.0314582 -4.6535e-22)             (0.951737 -0.0314591 3.06483e-22)
          0.1             (0.951649 0.0315357 -3.7602e-22)             (0.951649 -0.0315365 2.48628e-22)
       0.1025             (0.951561 0.031613 -2.90953e-22)             (0.951562 -0.0316138 1.93533e-22)
        0.105             (0.951474 0.03169 -2.09189e-22)             (0.951474 -0.0316908 1.40568e-22)
       0.1075             (0.951386 0.0317668 -1.30626e-22)             (0.951387 -0.0317676 8.97641e-23)
         0.11             (0.951299 0.0318435 -5.49879e-23)             (0.951299 -0.0318442 4.07491e-23)
       0.1125             (0.951211 0.0319198 1.76479e-23)             (0.951212 -0.0319206 -6.24425e-24)
        0.115             (0.951124 0.031996 8.69386e-23)             (0.951124 -0.0319967 -5.11489e-23)
       0.1175             (0.951036 0.032072 1.5389e-22)             (0.951037 -0.0320727 -9.45703e-23)
         0.12             (0.950949 0.0321477 2.18584e-22)             (0.95095 -0.0321484 -1.36445e-22)
       0.1225             (0.950862 0.0322233 2.80323e-22)             (0.950862 -0.032224 -1.76389e-22)
        0.125             (0.950775 0.0322987 3.39739e-22)             (0.950775 -0.0322994 -2.14832e-22)
       0.1275             (0.950688 0.0323739 3.9792e-22)             (0.950688 -0.0323745 -2.5252e-22)
         0.13             (0.950601 0.0324488 4.53928e-22)             (0.950601 -0.0324495 -2.88853e-22)
       0.1325             (0.950514 0.0325236 5.07905e-22)             (0.950514 -0.0325243 -3.2379e-22)
        0.135             (0.950427 0.0325983 5.60087e-22)             (0.950427 -0.0325989 -3.57435e-22)
       0.1375             (0.95034 0.0326727 6.10576e-22)             (0.95034 -0.0326734 -3.90157e-22)
         0.14             (0.950253 0.032747 6.59167e-22)             (0.950254 -0.0327476 -4.21597e-22)
       0.1425             (0.950167 0.0328212 7.06045e-22)             (0.950167 -0.0328218 -4.51927e-22)
        0.145             (0.95008 0.0328952 7.51626e-22)             (0.950081 -0.0328958 -4.81413e-22)
       0.1475             (0.949994 0.0329691 7.96303e-22)             (0.949994 -0.0329697 -5.10281e-22)
         0.15             (0.949907 0.0330428 8.39365e-22)             (0.949908 -0.0330434 -5.38128e-22)
       0.1525             (0.949821 0.0331165 8.812e-22)             (0.949822 -0.033117 -5.65206e-22)
        0.155             (0.949735 0.03319 9.21543e-22)             (0.949735 -0.0331905 -5.91259e-22)
       0.1575             (0.949649 0.0332633 9.61181e-22)             (0.949649 -0.0332639 -6.16979e-22)
         0.16             (0.949563 0.0333366 9.99299e-22)             (0.949563 -0.0333371 -6.41619e-22)
       0.1625             (0.949477 0.0334098 1.03559e-21)             (0.949477 -0.0334103 -6.65155e-22)
        0.165             (0.949391 0.0334829 1.07117e-21)             (0.949391 -0.0334834 -6.88197e-22)
       0.1675             (0.949305 0.0335559 1.10655e-21)             (0.949306 -0.0335564 -7.11111e-22)
         0.17             (0.94922 0.0336288 1.14086e-21)             (0.94922 -0.0336293 -7.33263e-22)
       0.1725             (0.949134 0.0337016 1.17385e-21)             (0.949134 -0.0337021 -7.546e-22)
        0.175             (0.949048 0.0337744 1.20631e-21)             (0.949049 -0.0337749 -7.75542e-22)
       0.1775             (0.948963 0.0338471 1.2376e-21)             (0.948963 -0.0338476 -7.95758e-22)
         0.18             (0.948877 0.0339198 1.26813e-21)             (0.948878 -0.0339203 -8.15417e-22)
       0.1825             (0.948792 0.0339924 1.29792e-21)             (0.948792 -0.0339929 -8.3466e-22)
        0.185             (0.948707 0.034065 1.3269e-21)             (0.948707 -0.0340654 -8.53386e-22)
       0.1875             (0.948621 0.0341375 1.35524e-21)             (0.948622 -0.034138 -8.71682e-22)
         0.19             (0.948536 0.03421 1.38257e-21)             (0.948536 -0.0342105 -8.89352e-22)
       0.1925             (0.948451 0.0342825 1.40951e-21)             (0.948451 -0.034283 -9.06766e-22)
        0.195             (0.948366 0.034355 1.43643e-21)             (0.948366 -0.0343554 -9.24164e-22)
       0.1975             (0.948281 0.0344274 1.46226e-21)             (0.948281 -0.0344278 -9.40843e-22)
          0.2             (0.948196 0.0344999 1.48717e-21)             (0.948196 -0.0345003 -9.56932e-22)
       0.2025             (0.948111 0.0345723 1.51185e-21)             (0.948111 -0.0345727 -9.72876e-22)
        0.205             (0.948026 0.0346447 1.53524e-21)             (0.948026 -0.0346451 -9.87966e-22)
       0.2075             (0.947941 0.0347171 1.55823e-21)             (0.947941 -0.0347175 -1.00282e-21)
         0.21             (0.947856 0.0347896 1.58101e-21)             (0.947857 -0.03479 -1.01754e-21)
       0.2125             (0.947772 0.0348621 1.60309e-21)             (0.947772 -0.0348624 -1.03182e-21)
        0.215             (0.947687 0.0349345 1.6249e-21)             (0.947687 -0.0349349 -1.0459e-21)
       0.2175             (0.947602 0.035007 1.64655e-21)             (0.947602 -0.0350074 -1.05989e-21)
         0.22             (0.947517 0.0350796 1.66759e-21)             (0.947518 -0.0350799 -1.07349e-21)
       0.2225             (0.947433 0.0351521 1.68812e-21)             (0.947433 -0.0351524 -1.08674e-21)
        0.225             (0.947348 0.0352247 1.7081e-21)             (0.947348 -0.035225 -1.09964e-21)
       0.2275             (0.947263 0.0352973 1.72815e-21)             (0.947264 -0.0352976 -1.11258e-21)
         0.23             (0.947179 0.0353699 1.74736e-21)             (0.947179 -0.0353703 -1.12497e-21)
       0.2325             (0.947094 0.0354426 1.76627e-21)             (0.947095 -0.0354429 -1.13716e-21)
        0.235             (0.94701 0.0355153 1.78491e-21)             (0.94701 -0.0355157 -1.14921e-21)
       0.2375             (0.946925 0.0355881 1.80244e-21)             (0.946925 -0.0355884 -1.16056e-21)
         0.24             (0.946841 0.035661 1.81962e-21)             (0.946841 -0.0356613 -1.1717e-21)
       0.2425             (0.946756 0.0357339 1.83675e-21)             (0.946756 -0.0357342 -1.18279e-21)
        0.245             (0.946672 0.0358069 1.85351e-21)             (0.946672 -0.0358072 -1.19361e-21)
       0.2475             (0.946587 0.03588 1.87031e-21)             (0.946587 -0.0358803 -1.2044e-21)
         0.25             (0.946502 0.0359531 1.88653e-21)             (0.946503 -0.0359534 -1.21481e-21)
       0.2525             (0.946418 0.0360263 1.90304e-21)             (0.946418 -0.0360266 -1.22547e-21)
        0.255             (0.946333 0.0360996 1.91901e-21)             (0.946334 -0.0360999 -1.2358e-21)
       0.2575             (0.946249 0.036173 1.93448e-21)             (0.946249 -0.0361733 -1.2458e-21)
         0.26             (0.946164 0.0362464 1.94973e-21)             (0.946165 -0.0362467 -1.25567e-21)
       0.2625             (0.94608 0.03632 1.96424e-21)             (0.94608 -0.0363203 -1.26504e-21)
        0.265             (0.945995 0.0363936 1.97897e-21)             (0.945996 -0.0363939 -1.27453e-21)
       0.2675             (0.945911 0.0364673 1.99337e-21)             (0.945911 -0.0364676 -1.28381e-21)
         0.27             (0.945826 0.0365411 2.00776e-21)             (0.945826 -0.0365414 -1.29308e-21)
       0.2725             (0.945742 0.036615 2.02166e-21)             (0.945742 -0.0366153 -1.30205e-21)
        0.275             (0.945657 0.036689 2.03552e-21)             (0.945657 -0.0366893 -1.31103e-21)
       0.2775             (0.945572 0.0367631 2.04929e-21)             (0.945573 -0.0367634 -1.31992e-21)
         0.28             (0.945488 0.0368373 2.0623e-21)             (0.945488 -0.0368376 -1.3283e-21)
       0.2825             (0.945403 0.0369116 2.07516e-21)             (0.945403 -0.0369119 -1.33656e-21)
        0.285             (0.945318 0.0369861 2.08782e-21)             (0.945318 -0.0369863 -1.34469e-21)
       0.2875             (0.945233 0.0370606 2.10054e-21)             (0.945234 -0.0370609 -1.35292e-21)
         0.29             (0.945149 0.0371353 2.11285e-21)             (0.945149 -0.0371355 -1.36089e-21)
       0.2925             (0.945064 0.0372101 2.12465e-21)             (0.945064 -0.0372103 -1.36851e-21)
        0.295             (0.944979 0.037285 2.13662e-21)             (0.944979 -0.0372852 -1.37624e-21)
       0.2975             (0.944894 0.03736 2.14834e-21)             (0.944894 -0.0373603 -1.3838e-21)
          0.3             (0.944809 0.0374352 2.15995e-21)             (0.944809 -0.0374354 -1.39129e-21)
       0.3025             (0.944724 0.0375104 2.17161e-21)             (0.944724 -0.0375107 -1.39882e-21)
        0.305             (0.944639 0.0375859 2.18278e-21)             (0.944639 -0.0375861 -1.40601e-21)
       0.3075             (0.944554 0.0376614 2.19425e-21)             (0.944554 -0.0376616 -1.4134e-21)
         0.31             (0.944469 0.0377371 2.20488e-21)             (0.944469 -0.0377373 -1.42023e-21)
       0.3125             (0.944384 0.0378129 2.21528e-21)             (0.944384 -0.0378131 -1.42693e-21)
        0.315             (0.944298 0.0378888 2.22512e-21)             (0.944299 -0.0378891 -1.43327e-21)
       0.3175             (0.944213 0.0379649 2.2352e-21)             (0.944213 -0.0379652 -1.43976e-21)
         0.32             (0.944128 0.0380412 2.24545e-21)             (0.944128 -0.0380414 -1.44638e-21)
       0.3225             (0.944042 0.0381176 2.25546e-21)             (0.944043 -0.0381178 -1.45287e-21)
        0.325             (0.943957 0.0381942 2.26492e-21)             (0.943957 -0.0381944 -1.45899e-21)
       0.3275             (0.943871 0.0382709 2.2747e-21)             (0.943871 -0.0382711 -1.46531e-21)
         0.33             (0.943786 0.0383478 2.28417e-21)             (0.943786 -0.038348 -1.47144e-21)
       0.3325             (0.9437 0.0384247 2.29394e-21)             (0.9437 -0.038425 -1.47773e-21)
        0.335             (0.943614 0.0385019 2.30355e-21)             (0.943614 -0.0385021 -1.48393e-21)
       0.3375             (0.943528 0.0385792 2.31279e-21)             (0.943529 -0.0385794 -1.4899e-21)
         0.34             (0.943443 0.0386566 2.32187e-21)             (0.943443 -0.0386569 -1.49575e-21)
       0.3425             (0.943357 0.0387342 2.33076e-21)             (0.943357 -0.0387345 -1.50148e-21)
        0.345             (0.943271 0.038812 2.33973e-21)             (0.943271 -0.0388122 -1.50727e-21)
       0.3475             (0.943184 0.0388899 2.34866e-21)             (0.943185 -0.0388901 -1.51303e-21)
         0.35             (0.943098 0.038968 2.3572e-21)             (0.943098 -0.0389682 -1.51855e-21)
       0.3525             (0.943012 0.0390462 2.3657e-21)             (0.943012 -0.0390465 -1.52403e-21)
        0.355             (0.942926 0.0391247 2.37406e-21)             (0.942926 -0.0391249 -1.5294e-21)
       0.3575             (0.942839 0.0392032 2.3822e-21)             (0.942839 -0.0392035 -1.53464e-21)
         0.36             (0.942753 0.039282 2.39029e-21)             (0.942753 -0.0392822 -1.53987e-21)
       0.3625             (0.942666 0.0393609 2.39829e-21)             (0.942666 -0.0393611 -1.54501e-21)
        0.365             (0.942579 0.03944 2.40616e-21)             (0.94258 -0.0394402 -1.55008e-21)
       0.3675             (0.942493 0.0395193 2.41396e-21)             (0.942493 -0.0395195 -1.5551e-21)
         0.37             (0.942406 0.0395987 2.42151e-21)             (0.942406 -0.0395989 -1.55999e-21)
       0.3725             (0.942319 0.0396783 2.42898e-21)             (0.942319 -0.0396785 -1.56483e-21)
        0.375             (0.942232 0.0397581 2.43672e-21)             (0.942232 -0.0397583 -1.56982e-21)
       0.3775             (0.942145 0.0398381 2.44444e-21)             (0.942145 -0.0398383 -1.57482e-21)
         0.38             (0.942057 0.0399182 2.45168e-21)             (0.942058 -0.0399184 -1.57949e-21)
       0.3825             (0.94197 0.0399985 2.45904e-21)             (0.94197 -0.0399987 -1.58424e-21)
        0.385             (0.941883 0.0400789 2.46614e-21)             (0.941883 -0.0400791 -1.58882e-21)
       0.3875             (0.941795 0.0401596 2.47312e-21)             (0.941795 -0.0401598 -1.59332e-21)
         0.39             (0.941707 0.0402404 2.48039e-21)             (0.941708 -0.0402406 -1.598e-21)
       0.3925             (0.94162 0.0403214 2.48752e-21)             (0.94162 -0.0403216 -1.60261e-21)
        0.395             (0.941532 0.0404026 2.49465e-21)             (0.941532 -0.0404028 -1.60724e-21)
       0.3975             (0.941444 0.040484 2.5005e-21)             (0.941444 -0.0404842 -1.61102e-21)
          0.4             (0.941356 0.0405655 2.5069e-21)             (0.941356 -0.0405657 -1.61514e-21)
       0.4025             (0.941267 0.0406472 2.51345e-21)             (0.941268 -0.0406474 -1.61935e-21)
        0.405             (0.941179 0.0407292 2.52017e-21)             (0.941179 -0.0407293 -1.6237e-21)
       0.4075             (0.941091 0.0408112 2.52671e-21)             (0.941091 -0.0408114 -1.62792e-21)
         0.41             (0.941002 0.0408935 2.53312e-21)             (0.941002 -0.0408937 -1.63205e-21)
       0.4125             (0.940913 0.040976 2.5394e-21)             (0.940914 -0.0409762 -1.63609e-21)
        0.415             (0.940825 0.0410586 2.54564e-21)             (0.940825 -0.0410588 -1.64011e-21)
       0.4175             (0.940736 0.0411415 2.55155e-21)             (0.940736 -0.0411416 -1.64393e-21)
         0.42             (0.940647 0.0412245 2.55762e-21)             (0.940647 -0.0412246 -1.64784e-21)
       0.4225             (0.940558 0.0413076 2.56361e-21)             (0.940558 -0.0413078 -1.6517e-21)
        0.425             (0.940468 0.041391 2.5695e-21)             (0.940469 -0.0413912 -1.6555e-21)
       0.4275             (0.940379 0.0414746 2.57526e-21)             (0.940379 -0.0414748 -1.65924e-21)
         0.43             (0.94029 0.0415583 2.58123e-21)             (0.94029 -0.0415585 -1.6631e-21)
       0.4325             (0.9402 0.0416422 2.58717e-21)             (0.9402 -0.0416424 -1.66696e-21)
        0.435             (0.94011 0.0417264 2.59286e-21)             (0.94011 -0.0417265 -1.67064e-21)
       0.4375             (0.94002 0.0418107 2.59849e-21)             (0.940021 -0.0418108 -1.67427e-21)
         0.44             (0.93993 0.0418951 2.60404e-21)             (0.939931 -0.0418953 -1.67786e-21)
       0.4425             (0.93984 0.0419798 2.60969e-21)             (0.93984 -0.04198 -1.68149e-21)
        0.445             (0.93975 0.0420646 2.61544e-21)             (0.93975 -0.0420648 -1.6852e-21)
       0.4475             (0.93966 0.0421497 2.62087e-21)             (0.93966 -0.0421499 -1.68869e-21)
         0.45             (0.939569 0.0422349 2.62683e-21)             (0.939569 -0.042235 -1.69251e-21)
       0.4525             (0.939478 0.0423202 2.6332e-21)             (0.939479 -0.0423204 -1.6966e-21)
        0.455             (0.939388 0.0424057 2.63766e-21)             (0.939388 -0.0424059 -1.69948e-21)
       0.4575             (0.939297 0.0424915 2.64175e-21)             (0.939297 -0.0424917 -1.70213e-21)
         0.46             (0.939206 0.0425774 2.64672e-21)             (0.939206 -0.0425776 -1.70534e-21)
       0.4625             (0.939114 0.0426636 2.65162e-21)             (0.939115 -0.0426638 -1.70851e-21)
        0.465             (0.939023 0.0427499 2.65655e-21)             (0.939023 -0.0427501 -1.71169e-21)
       0.4675             (0.938932 0.0428364 2.66154e-21)             (0.938932 -0.0428366 -1.71492e-21)
         0.47             (0.93884 0.0429231 2.6662e-21)             (0.93884 -0.0429233 -1.71793e-21)
       0.4725             (0.938748 0.04301 2.67169e-21)             (0.938748 -0.0430101 -1.72148e-21)
        0.475             (0.938656 0.043097 2.67684e-21)             (0.938656 -0.0430972 -1.72481e-21)
       0.4775             (0.938564 0.0431843 2.68138e-21)             (0.938564 -0.0431844 -1.72774e-21)
         0.48             (0.938472 0.0432717 2.68639e-21)             (0.938472 -0.0432718 -1.73099e-21)
       0.4825             (0.93838 0.0433593 2.69112e-21)             (0.93838 -0.0433594 -1.73401e-21)
        0.485             (0.938287 0.043447 2.69612e-21)             (0.938287 -0.0434472 -1.73722e-21)
       0.4875             (0.938194 0.043535 2.70022e-21)             (0.938195 -0.0435351 -1.73989e-21)
         0.49             (0.938102 0.0436231 2.70527e-21)             (0.938102 -0.0436233 -1.74315e-21)
       0.4925             (0.938009 0.0437114 2.71019e-21)             (0.938009 -0.0437116 -1.74636e-21)
        0.495             (0.937916 0.0437999 2.71505e-21)             (0.937916 -0.0438 -1.74953e-21)
       0.4975             (0.937822 0.0438885 2.71893e-21)             (0.937823 -0.0438887 -1.75206e-21)
          0.5             (0.937729 0.0439774 2.72293e-21)             (0.937729 -0.0439775 -1.75463e-21)
       0.5025             (0.937635 0.0440664 2.72741e-21)             (0.937636 -0.0440666 -1.75752e-21)
        0.505             (0.937542 0.0441556 2.73215e-21)             (0.937542 -0.0441558 -1.76059e-21)
       0.5075             (0.937448 0.044245 2.73685e-21)             (0.937448 -0.0442451 -1.76362e-21)
         0.51             (0.937354 0.0443345 2.74162e-21)             (0.937354 -0.0443347 -1.76671e-21)
       0.5125             (0.93726 0.0444242 2.7463e-21)             (0.93726 -0.0444244 -1.76973e-21)
        0.515             (0.937165 0.0445141 2.75038e-21)             (0.937166 -0.0445143 -1.77237e-21)
       0.5175             (0.937071 0.0446041 2.75476e-21)             (0.937071 -0.0446043 -1.77518e-21)
         0.52             (0.936976 0.0446944 2.7591e-21)             (0.936976 -0.0446946 -1.77798e-21)
       0.5225             (0.936881 0.0447848 2.76335e-21)             (0.936882 -0.044785 -1.78072e-21)
        0.525             (0.936787 0.0448754 2.76756e-21)             (0.936787 -0.0448756 -1.78342e-21)
       0.5275             (0.936691 0.0449661 2.77199e-21)             (0.936692 -0.0449663 -1.78628e-21)
         0.53             (0.936596 0.0450571 2.77641e-21)             (0.936596 -0.0450573 -1.78913e-21)
       0.5325             (0.936501 0.0451482 2.78032e-21)             (0.936501 -0.0451484 -1.79166e-21)
        0.535             (0.936405 0.0452395 2.78476e-21)             (0.936405 -0.0452396 -1.79452e-21)
       0.5375             (0.93631 0.0453309 2.78911e-21)             (0.93631 -0.0453311 -1.79734e-21)
         0.54             (0.936214 0.0454225 2.79319e-21)             (0.936214 -0.0454227 -1.79999e-21)
       0.5425             (0.936118 0.0455143 2.79693e-21)             (0.936118 -0.0455145 -1.8024e-21)
        0.545             (0.936021 0.0456063 2.80089e-21)             (0.936022 -0.0456064 -1.80496e-21)
       0.5475             (0.935925 0.0456984 2.80493e-21)             (0.935925 -0.0456986 -1.80758e-21)
         0.55             (0.935828 0.0457908 2.80899e-21)             (0.935829 -0.0457909 -1.8102e-21)
       0.5525             (0.935732 0.0458833 2.81303e-21)             (0.935732 -0.0458834 -1.81281e-21)
        0.555             (0.935635 0.0459759 2.81709e-21)             (0.935635 -0.0459761 -1.81543e-21)
       0.5575             (0.935538 0.0460688 2.82105e-21)             (0.935538 -0.0460689 -1.818e-21)
         0.56             (0.935441 0.0461618 2.82499e-21)             (0.935441 -0.046162 -1.82054e-21)
       0.5625             (0.935344 0.046255 2.8291e-21)             (0.935344 -0.0462552 -1.82321e-21)
        0.565             (0.935246 0.0463484 2.83316e-21)             (0.935246 -0.0463485 -1.82583e-21)
       0.5675             (0.935148 0.0464419 2.83724e-21)             (0.935149 -0.0464421 -1.82848e-21)
         0.57             (0.935051 0.0465356 2.84124e-21)             (0.935051 -0.0465358 -1.83106e-21)
       0.5725             (0.934953 0.0466295 2.84541e-21)             (0.934953 -0.0466297 -1.83377e-21)
        0.575             (0.934855 0.0467235 2.85004e-21)             (0.934855 -0.0467237 -1.83675e-21)
       0.5775             (0.934756 0.0468177 2.85462e-21)             (0.934757 -0.0468179 -1.83972e-21)
         0.58             (0.934658 0.0469121 2.8577e-21)             (0.934658 -0.0469123 -1.84173e-21)
       0.5825             (0.934559 0.0470067 2.86102e-21)             (0.93456 -0.0470069 -1.84389e-21)
        0.585             (0.934461 0.0471015 2.86358e-21)             (0.934461 -0.0471017 -1.84555e-21)
       0.5875             (0.934362 0.0471965 2.86742e-21)             (0.934362 -0.0471967 -1.84804e-21)
         0.59             (0.934263 0.0472917 2.87166e-21)             (0.934263 -0.0472918 -1.85077e-21)
       0.5925             (0.934163 0.0473871 2.8744e-21)             (0.934164 -0.0473872 -1.85255e-21)
        0.595             (0.934064 0.0474826 2.87833e-21)             (0.934064 -0.0474828 -1.85509e-21)
       0.5975             (0.933964 0.0475784 2.88274e-21)             (0.933965 -0.0475785 -1.85794e-21)
          0.6             (0.933865 0.0476743 2.88576e-21)             (0.933865 -0.0476744 -1.85989e-21)
       0.6025             (0.933765 0.0477704 2.88965e-21)             (0.933765 -0.0477706 -1.86239e-21)
        0.605             (0.933665 0.0478667 2.89357e-21)             (0.933665 -0.0478669 -1.86493e-21)
       0.6075             (0.933565 0.0479632 2.89748e-21)             (0.933565 -0.0479634 -1.86745e-21)
         0.61             (0.933464 0.0480599 2.90177e-21)             (0.933465 -0.0480601 -1.87021e-21)
       0.6125             (0.933364 0.0481568 2.90466e-21)             (0.933364 -0.0481569 -1.87209e-21)
        0.615             (0.933263 0.0482539 2.90863e-21)             (0.933263 -0.048254 -1.87467e-21)
       0.6175             (0.933162 0.0483512 2.9118e-21)             (0.933163 -0.0483513 -1.87673e-21)
         0.62             (0.933061 0.0484487 2.91541e-21)             (0.933062 -0.0484488 -1.87907e-21)
       0.6225             (0.93296 0.0485464 2.9194e-21)             (0.932961 -0.0485465 -1.88166e-21)
        0.625             (0.932859 0.0486443 2.92285e-21)             (0.932859 -0.0486444 -1.8839e-21)
       0.6275             (0.932758 0.0487424 2.92613e-21)             (0.932758 -0.0487426 -1.88601e-21)
         0.63             (0.932656 0.0488407 2.92969e-21)             (0.932656 -0.0488409 -1.88833e-21)
       0.6325             (0.932554 0.0489393 2.93363e-21)             (0.932555 -0.0489394 -1.89089e-21)
        0.635             (0.932453 0.049038 2.93768e-21)             (0.932453 -0.0490382 -1.89349e-21)
       0.6375             (0.932351 0.049137 2.94154e-21)             (0.932351 -0.0491371 -1.89599e-21)
         0.64             (0.932248 0.0492362 2.94535e-21)             (0.932249 -0.0492363 -1.89847e-21)
       0.6425             (0.932146 0.0493356 2.94917e-21)             (0.932146 -0.0493357 -1.90093e-21)
        0.645             (0.932044 0.0494352 2.95197e-21)             (0.932044 -0.0494354 -1.90276e-21)
       0.6475             (0.931941 0.0495351 2.95561e-21)             (0.931941 -0.0495352 -1.90509e-21)
         0.65             (0.931838 0.0496352 2.95946e-21)             (0.931838 -0.0496353 -1.90758e-21)
       0.6525             (0.931735 0.0497355 2.96318e-21)             (0.931736 -0.0497356 -1.91e-21)
        0.655             (0.931632 0.049836 2.96678e-21)             (0.931633 -0.0498362 -1.91233e-21)
       0.6575             (0.931529 0.0499368 2.97037e-21)             (0.931529 -0.049937 -1.91462e-21)
         0.66             (0.931426 0.0500379 2.97407e-21)             (0.931426 -0.050038 -1.917e-21)
       0.6625             (0.931322 0.0501392 2.97795e-21)             (0.931323 -0.0501393 -1.91954e-21)
        0.665             (0.931219 0.0502407 2.98177e-21)             (0.931219 -0.0502409 -1.92202e-21)
       0.6675             (0.931115 0.0503425 2.98476e-21)             (0.931115 -0.0503426 -1.92394e-21)
         0.67             (0.931011 0.0504445 2.9883e-21)             (0.931011 -0.0504447 -1.92622e-21)
       0.6725             (0.930907 0.0505468 2.99193e-21)             (0.930907 -0.050547 -1.92855e-21)
        0.675             (0.930803 0.0506494 2.99579e-21)             (0.930803 -0.0506496 -1.93105e-21)
       0.6775             (0.930699 0.0507523 2.99936e-21)             (0.930699 -0.0507524 -1.93339e-21)
         0.68             (0.930594 0.0508554 3.00286e-21)             (0.930594 -0.0508555 -1.93566e-21)
       0.6825             (0.93049 0.0509588 3.00664e-21)             (0.93049 -0.0509589 -1.9381e-21)
        0.685             (0.930385 0.0510624 3.0108e-21)             (0.930385 -0.0510626 -1.9408e-21)
       0.6875             (0.93028 0.0511663 3.01494e-21)             (0.93028 -0.0511665 -1.94348e-21)
         0.69             (0.930175 0.0512705 3.01851e-21)             (0.930175 -0.0512707 -1.9458e-21)
       0.6925             (0.93007 0.051375 3.02214e-21)             (0.93007 -0.0513751 -1.94815e-21)
        0.695             (0.929965 0.0514798 3.02493e-21)             (0.929965 -0.0514799 -1.94997e-21)
       0.6975             (0.929859 0.0515848 3.02892e-21)             (0.92986 -0.051585 -1.95255e-21)
          0.7             (0.929754 0.0516902 3.03351e-21)             (0.929754 -0.0516903 -1.95553e-21)
       0.7025             (0.929648 0.0517958 3.03873e-21)             (0.929649 -0.0517959 -1.9589e-21)
        0.705             (0.929543 0.0519017 3.04118e-21)             (0.929543 -0.0519019 -1.96049e-21)
       0.7075             (0.929437 0.052008 3.04275e-21)             (0.929437 -0.0520082 -1.96152e-21)
         0.71             (0.929331 0.0521147 3.04727e-21)             (0.929331 -0.0521148 -1.96444e-21)