/*--------------------------------*- C++ -*----------------------------------*\
  =========                 |
  \\      /  F ield         | OpenFOAM: The Open Source CFD Toolbox
   \\    /   O peration     | Website:  https://openfoam.org
    \\  /    A nd           | Version:  7
     \\/     M anipulation  |
\*---------------------------------------------------------------------------*/
FoamFile
{
    version     2.0;
    format      ascii;
    class       volVectorField;
    location    "5";
    object      U;
}
// * * * * * * * * * * * * * * * * * * * * * * * * * * * * * * * * * * * * * //

dimensions      [0 1 -1 0 0 0 0];

internalField   nonuniform List<vector> 
6386
(
(-0.00515397 0.00416731 4.57086e-21)
(-0.0258304 0.00880451 1.62035e-20)
(-0.062406 0.0113256 -6.02325e-21)
(-0.104658 0.0125958 4.36666e-21)
(-0.149927 0.0131555 -3.1893e-20)
(-0.196653 0.0133705 -1.39786e-20)
(-0.24405 0.0134442 -3.02312e-21)
(-0.291831 0.0134561 -4.63927e-20)
(-0.339652 0.0133979 6.22999e-21)
(-0.387532 0.0133313 3.05691e-20)
(-0.00555235 0.0122877 -4.18508e-20)
(-0.0261445 0.0260387 -8.65416e-21)
(-0.0618825 0.0335709 2.59789e-20)
(-0.103024 0.0373936 -9.84416e-20)
(-0.146985 0.0390879 -1.25382e-20)
(-0.19219 0.0397343 1.86459e-20)
(-0.237785 0.0399398 6.64889e-21)
(-0.283408 0.0399488 1.28445e-19)
(-0.328557 0.0397457 -9.68593e-20)
(-0.373045 0.0394995 1.70099e-20)
(-0.00631261 0.0198465 8.07224e-20)
(-0.0267461 0.0423089 -1.1114e-20)
(-0.0608626 0.0547966 4.47944e-20)
(-0.0998396 0.0612254 1.00864e-19)
(-0.141246 0.0641104 2.09938e-19)
(-0.183479 0.0652002 -1.54444e-19)
(-0.225566 0.0654967 2.14004e-22)
(-0.267 0.0654234 -1.26077e-19)
(-0.307011 0.0649827 1.6536e-19)
(-0.344949 0.0643982 -1.63553e-19)
(-0.00736632 0.0265166 9.45658e-21)
(-0.0275847 0.0570323 -6.83498e-21)
(-0.0593982 0.0743663 5.06289e-20)
(-0.0952676 0.0834755 -7.29188e-20)
(-0.132985 0.0876386 -5.59395e-20)
(-0.170932 0.0891957 2.73167e-19)
(-0.207976 0.0895255 -8.51697e-20)
(-0.243434 0.0892494 -2.54942e-19)
(-0.276216 0.0884352 -8.69053e-20)
(-0.304868 0.0872664 1.21586e-19)
(-0.00862036 0.0320367 1.58484e-20)
(-0.0285903 0.0697124 6.58437e-20)
(-0.0575628 0.0917082 -1.40885e-19)
(-0.0895385 0.10357 1.66008e-19)
(-0.122598 0.10912 1.1172e-19)
(-0.155131 0.111183 -4.21862e-19)
(-0.185837 0.111484 3.68323e-19)
(-0.213841 0.110859 2.28576e-19)
(-0.237814 0.109514 8.02408e-20)
(-0.254969 0.107457 -2.78088e-20)
(-0.00996727 0.0362288 -1.14753e-19)
(-0.0296801 0.0799665 -5.10746e-20)
(-0.0554467 0.106339 4.40674e-20)
(-0.0829377 0.120993 -3.70153e-19)
(-0.110572 0.128044 1.82777e-19)
(-0.13679 0.130667 -4.78101e-20)
(-0.160146 0.130886 3.70455e-21)
(-0.179567 0.129758 4.54611e-20)
(-0.193733 0.127725 -1.00729e-19)
(-0.197733 0.124466 -5.72191e-20)
(-0.0112971 0.0390087 2.54338e-19)
(-0.0307665 0.0875467 -2.85264e-20)
(-0.0531522 0.117885 1.75956e-19)
(-0.075789 0.135305 6.02515e-20)
(-0.0974617 0.143951 -5.21915e-20)
(-0.116719 0.147196 -4.3043e-20)
(-0.132019 0.147298 -2.90306e-20)
(-0.14207 0.145517 -8.31904e-20)
(-0.146034 0.142645 4.99152e-20)
(-0.13578 0.138015 3.8914e-19)
(-0.0125097 0.0403872 -2.71467e-19)
(-0.0317667 0.0923533 1.75166e-19)
(-0.0507877 0.126106 -3.23004e-19)
(-0.0684355 0.14616 3.75649e-20)
(-0.083861 0.156445 9.31337e-20)
(-0.0957793 0.160369 3.46554e-19)
(-0.102638 0.160343 -1.648e-19)
(-0.102858 0.157795 2.86642e-19)
(-0.0966851 0.153813 -1.99083e-19)
(-0.0718777 0.14817 -2.6565e-19)
(-0.0135245 0.0404612 2.26278e-19)
(-0.0326129 0.094438 -1.07563e-19)
(-0.0484625 0.130904 -2.66209e-19)
(-0.0612179 0.153322 2.43294e-20)
(-0.0703653 0.165207 -4.63351e-19)
(-0.0748336 0.169839 -2.8898e-20)
(-0.0731822 0.169703 2.23242e-20)
(-0.0635196 0.166427 -1.43083e-19)
(-0.0473248 0.160702 3.38781e-19)
(-0.00876587 0.154636 1.40011e-19)
(-0.0142903 0.0394067 -1.77331e-19)
(-0.0332601 0.093997 -2.71431e-19)
(-0.0462808 0.132335 6.85802e-19)
(-0.0544516 0.15669 2.53183e-19)
(-0.0575325 0.170014 8.15313e-20)
(-0.0546908 0.175329 1.79956e-19)
(-0.0446794 0.175097 -2.07781e-19)
(-0.0255472 0.171074 3.30782e-20)
(0.000223121 0.16337 -5.54341e-19)
(0.0521288 0.156647 5.65343e-20)
(-0.014793 0.0374542 4.79679e-20)
(-0.033697 0.0913472 1.32713e-19)
(-0.044337 0.130607 -8.98902e-19)
(-0.0483995 0.156308 -1.25434e-19)
(-0.0458373 0.170765 1.24973e-19)
(-0.0360603 0.176642 -5.89029e-19)
(-0.0180928 0.176272 -1.84511e-20)
(0.0100854 0.171469 -1.3738e-20)
(0.0444282 0.161993 -1.96655e-19)
(0.109586 0.1537 3.39244e-20)
(-0.0150536 0.0348636 -4.8893e-20)
(-0.0339454 0.0869011 2.37731e-19)
(-0.0427076 0.126074 5.95653e-19)
(-0.0432465 0.152381 -2.87682e-19)
(-0.0356161 0.167512 2.2413e-20)
(-0.0194478 0.173719 -2.1949e-19)
(0.00591358 0.173126 -5.67534e-20)
(0.0426351 0.167646 5.51272e-19)
(0.0846331 0.156328 4.64705e-19)
(0.163224 0.145802 -6.02715e-20)
(-0.0151265 0.0319045 5.25015e-20)
(-0.0340574 0.0811303 1.00666e-19)
(-0.0414389 0.119202 -5.30764e-19)
(-0.0390677 0.145275 2.09157e-19)
(-0.0270044 0.160485 2.21386e-19)
(-0.00505212 0.166675 7.74194e-19)
(0.0271351 0.165717 4.20759e-19)
(0.0719615 0.159716 -2.19541e-19)
(0.121135 0.146427 -6.05611e-20)
(0.214386 0.133364 -2.9911e-19)
(-0.0150921 0.0288329 3.56064e-19)
(-0.0341053 0.0745238 -5.21175e-19)
(-0.0405312 0.110541 7.87276e-19)
(-0.0357947 0.1355 -2.74366e-19)
(-0.0198716 0.150109 -2.73129e-19)
(0.00734689 0.15585 -8.59176e-19)
(0.0460008 0.154333 -5.68298e-19)
(0.0988188 0.148008 3.1827e-19)
(0.155589 0.13265 4.91168e-19)
(0.266348 0.11759 5.27845e-19)
(-0.0150445 0.0258709 -3.10586e-19)
(-0.0341616 0.0675468 -1.27985e-19)
(-0.0399179 0.100681 1.71596e-20)
(-0.0331829 0.123681 3.35753e-20)
(-0.0137609 0.136997 7.07364e-19)
(0.0184937 0.141829 2.94556e-20)
(0.0637349 0.13957 5.50087e-19)
(0.125049 0.133167 -4.96552e-19)
(0.191373 0.115698 -9.97619e-19)
(0.323707 0.100569 -5.05757e-19)
(-0.034275 0.0606037 7.98776e-19)
(-0.0394405 0.0902031 1.20077e-20)
(-0.0307854 0.110519 -4.21229e-19)
(-0.00784984 0.121923 2.57429e-19)
(0.0297182 0.125447 -4.37783e-19)
(0.082424 0.122362 -8.96661e-20)
(0.153578 0.116166 2.35536e-19)
(0.233487 0.0968156 3.043e-19)
(0.390672 0.084911 2.42869e-19)
(-0.0344433 0.0540095 -3.92816e-19)
(-0.038829 0.0796345 -3.57114e-19)
(-0.0279427 0.0967282 -4.78506e-20)
(-0.000954529 0.105765 2.40827e-19)
(0.0429035 0.107734 8.23067e-19)
(0.104895 0.103942 6.77442e-19)
(0.188123 0.0982064 9.77634e-20)
(0.287673 0.0780921 8.55035e-19)
(0.468656 0.0730899 4.00782e-19)
(-0.0345918 0.0479693 7.13941e-19)
(-0.0376929 0.0694097 1.76776e-19)
(-0.0238022 0.0829798 7.05974e-19)
(0.00840232 0.0894236 -2.61895e-19)
(0.0603217 0.0898224 -8.06633e-19)
(0.13433 0.0857343 -4.08837e-19)
(0.232624 0.0805657 -4.66668e-19)
(0.358664 0.0625029 -1.03642e-18)
(0.554658 0.0666148 -1.35631e-19)
(-0.0355321 0.0598392 -4.76838e-19)
(-0.0173739 0.0698399 -3.08931e-19)
(0.0218527 0.0737336 -1.24035e-19)
(0.0843542 0.0728229 -2.94453e-20)
(0.173709 0.0691221 1.25887e-19)
(0.290505 0.0645321 2.07148e-19)
(0.447971 0.0531966 3.61527e-19)
(0.64259 0.0647145 -6.28163e-19)
(-0.0317687 0.0510946 2.471e-19)
(-0.00761919 0.057725 4.01564e-19)
(0.0409902 0.0593768 -2.63819e-19)
(0.117116 0.0576825 6.34089e-19)
(0.225182 0.0552353 -2.15293e-19)
(0.363784 0.0516039 -1.09752e-19)
(0.551992 0.0516864 1.74213e-20)
(0.727731 0.0623583 2.11983e-19)
(0.00645057 0.0468828 -2.96093e-19)
(0.0671798 0.0468388 2.36317e-19)
(0.160137 0.0451209 -2.11081e-19)
(0.289645 0.0448696 8.86643e-19)
(0.452075 0.0435521 -2.38195e-19)
(0.661886 0.0555985 4.95739e-19)
(0.8116 0.0529636 -2.37117e-19)
(0.101421 0.0364108 -5.14758e-19)
(0.21417 0.0356206 -6.82234e-19)
(0.366684 0.0385099 -6.76882e-19)
(0.552079 0.0416064 9.49022e-20)
(0.767998 0.0596332 3.43729e-19)
(0.930578 0.0519594 -8.6634e-20)
(0.144292 0.0282418 9.65177e-19)
(0.279122 0.0294772 7.25386e-19)
(0.454608 0.0364448 1.43439e-19)
(0.658146 0.0452525 -2.57512e-21)
(0.872377 0.0659565 -9.38458e-20)
(1.03633 0.0631292 1.31712e-18)
(0.354103 0.0268752 -8.33034e-19)
(0.550508 0.0387548 3.4986e-19)
(0.76481 0.0533255 1.6074e-19)
(0.970199 0.0757739 -1.12923e-18)
(1.12074 0.0762348 -1.97763e-19)
(0.650593 0.0452354 -3.59644e-19)
(0.867222 0.0647698 3.87776e-19)
(1.05676 0.0878315 2.97766e-20)
(1.18892 0.0899483 -2.00625e-19)
(0.961435 0.0785975 1.34236e-19)
(1.13033 0.101134 1.1985e-19)
(1.24051 0.10361 -1.04682e-19)
(1.1904 0.114953 1.85501e-19)
(1.27855 0.11671 5.31972e-19)
(1.30531 0.129219 -2.0976e-19)
(1.23802 -0.128835 -1.29092e-19)
(1.30549 -0.129255 -8.28991e-19)
(1.19061 -0.114988 -1.33312e-19)
(1.27874 -0.116743 8.34552e-19)
(0.961638 -0.0786237 -6.61061e-19)
(1.13054 -0.101165 5.33001e-19)
(1.24071 -0.103642 -2.12108e-19)
(0.650736 -0.045248 -1.02089e-19)
(0.867409 -0.0647897 1.14147e-19)
(1.05696 -0.0878572 -8.32027e-20)
(1.18912 -0.0899762 -5.32273e-20)
(0.354169 -0.0268792 -2.5858e-19)
(0.550623 -0.0387621 3.69275e-19)
(0.764974 -0.0533388 4.69882e-19)
(0.97039 -0.0757939 -1.0161e-18)
(1.12094 -0.0762578 -3.85059e-19)
(0.144306 -0.0282453 -2.54381e-19)
(0.279167 -0.0294786 9.70052e-19)
(0.454696 -0.0364473 -1.12202e-19)
(0.658283 -0.0452591 1.02744e-20)
(0.87255 -0.0659703 4.06673e-19)
(1.03652 -0.0631461 6.604e-19)
(0.101425 -0.0364133 -7.48954e-19)
(0.214197 -0.0356198 -4.19052e-19)
(0.366747 -0.0385085 -7.75559e-19)
(0.552188 -0.0416066 -2.05241e-19)
(0.768149 -0.0596408 4.33295e-19)
(0.930753 -0.0519679 -6.56605e-20)
(0.00643885 -0.0468879 1.06931e-19)
(0.0671767 -0.0468398 -7.35572e-20)
(0.160151 -0.045118 1.08816e-19)
(0.289686 -0.0448646 9.92959e-19)
(0.452154 -0.0435467 -1.17538e-19)
(0.662011 -0.0555996 -2.0224e-20)
(0.811747 -0.052964 -2.14352e-19)
(-0.0317825 -0.0511016 4.12608e-19)
(-0.00763253 -0.0577286 -1.57003e-19)
(0.0409818 -0.0593759 1.07587e-19)
(0.117118 -0.0576771 6.55241e-19)
(0.225205 -0.055227 -6.27093e-19)
(0.363836 -0.0515941 4.66064e-19)
(0.552087 -0.0516796 -4.98985e-19)
(0.727862 -0.0623555 2.31816e-19)
(-0.0355451 -0.0598445 -7.03848e-19)
(-0.017388 -0.0698414 -3.37596e-19)
(0.0218406 -0.0737302 1.78147e-20)
(0.0843487 -0.0728148 -6.34767e-20)
(0.173717 -0.0691102 2.87683e-19)
(0.290535 -0.0645188 -9.54313e-20)
(0.448033 -0.0531822 4.5221e-19)
(0.642699 -0.0647067 -6.09255e-19)
(-0.0345999 -0.0479747 -2.2676e-19)
(-0.0377049 -0.0694128 7.71086e-19)
(-0.0238165 -0.0829786 3.32855e-19)
(0.00838776 -0.0894172 9.95169e-20)
(0.0603101 -0.0898109 -8.62665e-19)
(0.134326 -0.0857188 -6.63731e-19)
(0.232635 -0.0805491 -4.56585e-19)
(0.358696 -0.0624826 -9.27481e-19)
(0.55474 -0.0666007 -4.71374e-19)
(-0.0344502 -0.0540131 -5.75616e-19)
(-0.0388399 -0.079635 -1.80615e-19)
(-0.0279569 -0.0967237 8.38107e-20)
(-0.000970677 -0.105755 -7.31603e-20)
(0.0428873 -0.107718 1.09357e-18)
(0.104882 -0.103922 5.6494e-19)
(0.188119 -0.098186 2.98793e-19)
(0.287681 -0.0780676 5.67792e-19)
(0.468709 -0.0730697 1.96388e-19)
(-0.0150785 -0.0231924 -1.1289e-19)
(-0.0342805 -0.0606052 7.51666e-19)
(-0.0394502 -0.0902004 -4.96571e-20)
(-0.0307991 -0.110511 -2.8975e-19)
(-0.00786697 -0.121909 1.36699e-19)
(0.0296989 -0.125428 -1.74027e-19)
(0.0824046 -0.122339 -4.63311e-19)
(0.153563 -0.116142 1.83045e-19)
(0.233476 -0.0967882 5.91201e-19)
(0.390697 -0.0848857 2.90079e-20)
(-0.015046 -0.0258719 -1.48064e-19)
(-0.0341658 -0.0675456 -2.52637e-19)
(-0.0399264 -0.100675 -2.61578e-19)
(-0.0331961 -0.123669 1.466e-19)
(-0.0137786 -0.136978 5.14486e-19)
(0.0184721 -0.141805 5.38055e-19)
(0.0637108 -0.139543 1.9253e-19)
(0.125026 -0.133139 -6.38466e-19)
(0.191349 -0.115668 -5.51354e-19)
(0.323708 -0.10054 -6.16037e-19)
(-0.015093 -0.0288327 4.33791e-19)
(-0.0341082 -0.0745198 -5.40601e-19)
(-0.0405386 -0.110531 3.55921e-19)
(-0.0358073 -0.135482 3.13685e-19)
(-0.0198897 -0.150086 -6.98683e-19)
(0.00732369 -0.155821 -6.13347e-19)
(0.0459734 -0.154302 -7.47415e-19)
(0.0987896 -0.147976 2.79548e-19)
(0.155557 -0.132618 2.97082e-19)
(0.266331 -0.117559 8.77099e-19)
(-0.0151268 -0.0319029 -3.10699e-19)
(-0.0340593 -0.0811229 1.30042e-19)
(-0.0414453 -0.119187 -4.09888e-19)
(-0.0390799 -0.145253 3.32921e-19)
(-0.0270227 -0.160457 4.93083e-20)
(-0.00507645 -0.166642 9.61525e-19)
(0.0271053 -0.165682 4.589e-19)
(0.0719279 -0.15968 -2.46758e-19)
(0.121098 -0.146392 -1.0302e-19)
(0.214355 -0.133332 1.2008e-20)
(-0.0150532 -0.0348604 -1.37323e-19)
(-0.0339462 -0.0868899 3.4137e-19)
(-0.0427132 -0.126054 4.318e-19)
(-0.0432582 -0.152354 -4.51794e-20)
(-0.0356344 -0.167478 -4.27837e-19)
(-0.0194729 -0.173681 -2.0409e-21)
(0.0058821 -0.173086 1.45335e-19)
(0.0425984 -0.167606 2.8812e-19)
(0.0845914 -0.15629 5.62783e-19)
(0.163183 -0.145769 -1.66031e-20)
(-0.0147921 -0.0374492 -4.91979e-20)
(-0.033697 -0.0913321 2.45748e-20)
(-0.0443419 -0.130582 -6.68111e-19)
(-0.0484107 -0.156274 -2.61137e-19)
(-0.0458556 -0.170726 9.51914e-20)
(-0.0360858 -0.176599 -6.26879e-19)
(-0.0181254 -0.176228 3.1658e-19)
(0.0100466 -0.171427 -4.26281e-19)
(0.0443836 -0.161952 -1.99734e-19)
(0.109538 -0.153666 3.21444e-19)
(-0.014289 -0.0393997 -1.31916e-19)
(-0.0332594 -0.0939777 -2.087e-19)
(-0.0462851 -0.132304 7.05813e-19)
(-0.0544624 -0.156651 1.04147e-19)
(-0.0575505 -0.16997 4.69221e-19)
(-0.0547163 -0.175281 -5.32183e-20)
(-0.0447127 -0.175048 -9.77253e-20)
(-0.025587 -0.171028 -1.33059e-19)
(0.000176705 -0.163326 -5.37056e-19)
(0.0520763 -0.156611 -1.2766e-19)
(-0.0135228 -0.0404521 1.69448e-19)
(-0.0326118 -0.0944143 -2.34618e-19)
(-0.0484663 -0.130868 -3.28009e-20)
(-0.0612282 -0.153278 -6.6349e-20)
(-0.0703828 -0.165158 -4.43174e-19)
(-0.0748588 -0.169787 -9.11109e-22)
(-0.0732156 -0.16965 -1.31305e-19)
(-0.0635591 -0.166377 7.15862e-20)
(-0.0473729 -0.160657 3.34897e-19)
(-0.00882227 -0.154597 1.04078e-19)
(-0.0125077 -0.0403759 -3.09596e-19)
(-0.0317652 -0.0923253 2.51637e-19)
(-0.0507911 -0.126065 -3.12715e-19)
(-0.0684452 -0.146111 1.60491e-20)
(-0.0838777 -0.156392 1.79439e-20)
(-0.0958035 -0.160312 4.17315e-19)
(-0.10267 -0.160286 -8.3237e-20)
(-0.102898 -0.157739 -2.39592e-20)
(-0.0967341 -0.153765 1.21099e-19)
(-0.0719363 -0.148129 -5.84266e-19)
(-0.0112951 -0.0389952 3.29484e-19)
(-0.0307648 -0.0875146 -1.82416e-19)
(-0.0531552 -0.11784 1.84967e-19)
(-0.075798 -0.135252 1.0342e-19)
(-0.0974773 -0.143893 4.19049e-20)
(-0.116742 -0.147135 -1.00077e-19)
(-0.132049 -0.147237 -1.39858e-19)
(-0.142108 -0.145458 -1.5817e-19)
(-0.146082 -0.142593 2.8958e-19)
(-0.135839 -0.137971 2.18801e-19)
(-0.00996525 -0.0362131 -8.55545e-20)
(-0.0296784 -0.0799304 4.44947e-20)
(-0.0554493 -0.106289 2.54074e-20)
(-0.0829457 -0.120936 -3.33634e-19)
(-0.110586 -0.127982 6.77701e-20)
(-0.136811 -0.130602 6.79153e-20)
(-0.160174 -0.130821 -1.46737e-19)
(-0.179602 -0.129695 7.8377e-20)
(-0.193779 -0.127669 -6.70985e-20)
(-0.197789 -0.124418 -1.44047e-19)
(-0.00861849 -0.0320191 -6.85984e-20)
(-0.0285888 -0.0696729 2.60729e-20)
(-0.057565 -0.091655 -5.54302e-20)
(-0.0895454 -0.103509 1.82166e-19)
(-0.12261 -0.109055 -3.92206e-20)
(-0.155149 -0.111116 -2.89298e-19)
(-0.185862 -0.111416 1.88221e-19)
(-0.213873 -0.110793 3.34532e-19)
(-0.237854 -0.109454 1.12964e-19)
(-0.255021 -0.107405 -2.26605e-21)
(-0.00736472 -0.0264973 -1.97183e-20)
(-0.0275833 -0.0569898 7.17043e-20)
(-0.0594 -0.07431 -1.42289e-19)
(-0.0952733 -0.0834115 5.32675e-20)
(-0.132995 -0.0875705 -8.96224e-20)
(-0.170947 -0.0891253 2.33379e-19)
(-0.207997 -0.0894544 -1.29468e-19)
(-0.243461 -0.0891801 -1.20572e-19)
(-0.276251 -0.0883709 -1.99266e-19)
(-0.304912 -0.0872112 1.91807e-19)
(-0.00631139 -0.0198258 7.48935e-20)
(-0.026745 -0.0422641 -3.6596e-20)
(-0.0608639 -0.0547378 6.42673e-20)
(-0.0998437 -0.0611591 8.7954e-20)
(-0.141253 -0.06404 2.00793e-19)
(-0.18349 -0.0651275 -1.53675e-19)
(-0.225581 -0.0654233 4.17841e-20)
(-0.267021 -0.0653515 -1.34639e-19)
(-0.307038 -0.0649155 1.32918e-19)
(-0.344983 -0.0643399 -1.25343e-19)
(-0.00555158 -0.012266 -2.45687e-20)
(-0.0261439 -0.0259923 8.56975e-21)
(-0.0618833 -0.0335105 9.95666e-21)
(-0.103026 -0.0373258 -7.34409e-20)
(-0.146989 -0.0390161 -4.0324e-20)
(-0.192196 -0.0396601 4.30255e-20)
(-0.237795 -0.0398648 7.324e-21)
(-0.28342 -0.039875 1.42506e-19)
(-0.328574 -0.0396764 -1.13041e-19)
(-0.373066 -0.0394389 -3.89027e-20)
(-0.00515371 -0.00414521 -4.13912e-21)
(-0.0258302 -0.00875732 1.32792e-20)
(-0.0624062 -0.0112643 -8.39494e-21)
(-0.104659 -0.0125271 6.4888e-21)
(-0.149928 -0.0130828 -3.17904e-20)
(-0.196655 -0.0132955 -7.8593e-21)
(-0.244053 -0.0133683 -1.05433e-20)
(-0.291835 -0.0133814 -3.45849e-20)
(-0.339658 -0.0133275 -2.57254e-21)
(-0.38754 -0.0132695 4.03741e-20)
(-0.428843 0.0133615 -2.14246e-21)
(-0.464395 0.0118547 8.04018e-21)
(-0.496165 0.0103746 2.07203e-22)
(-0.524769 0.00869502 -8.89084e-21)
(-0.548917 0.00686804 1.03357e-20)
(-0.568104 0.00489284 -4.04413e-22)
(-0.581316 0.00277792 -1.78902e-21)
(-0.58737 0.000496002 -1.88782e-21)
(-0.58531 -0.00197474 1.61262e-21)
(-0.57404 -0.00463313 3.21116e-21)
(-0.552023 -0.00747069 -3.44664e-21)
(-0.517847 -0.0104255 -8.50267e-22)
(-0.47028 -0.0133727 6.62119e-22)
(-0.40881 -0.0160843 1.36228e-22)
(-0.333981 -0.0183067 -6.80931e-22)
(-0.247739 -0.0197604 -3.02795e-22)
(-0.153249 -0.0203323 -6.78493e-22)
(-0.0541952 -0.0200688 1.22446e-22)
(0.0455626 -0.0190854 -1.39646e-22)
(0.142766 -0.0176292 1.35814e-22)
(0.235104 -0.015916 -7.31717e-22)
(0.321021 -0.0141175 -6.25269e-23)
(0.399713 -0.0123591 1.09288e-21)
(0.470979 -0.0107188 -7.32241e-22)
(0.534961 -0.0092391 -3.65973e-22)
(0.592138 -0.00793356 6.31413e-22)
(0.643006 -0.006803 -2.03595e-22)
(0.688343 -0.00583465 -3.34276e-22)
(0.728617 -0.0050161 -8.90371e-24)
(0.764756 -0.00432442 2.1069e-22)
(0.796922 -0.00374385 -2.21011e-22)
(0.826184 -0.00324181 -3.55098e-22)
(0.852023 -0.00280426 1.99845e-23)
(0.875774 -0.00239832 2.09489e-22)
(0.895882 -0.00203357 -5.71599e-23)
(0.914601 -0.00168642 -8.60065e-23)
(0.929038 -0.00139501 6.85082e-23)
(0.943463 -0.00112148 -7.72354e-23)
(0.952663 -0.000925204 8.89747e-23)
(0.964356 -0.000725508 9.5031e-23)
(0.968866 -0.000626765 1.57794e-23)
(0.980048 -0.000472155 4.26359e-24)
(-0.411488 0.0395605 -5.65757e-20)
(-0.446074 0.0351312 2.46811e-20)
(-0.476489 0.0307326 6.0884e-21)
(-0.503865 0.0257617 2.40205e-20)
(-0.52685 0.02035 -1.35978e-20)
(-0.544965 0.0144992 2.27547e-21)
(-0.557241 0.0082366 -1.48572e-20)
(-0.562531 0.00148336 -3.8996e-21)
(-0.55993 -0.00583722 -3.09173e-21)
(-0.548329 -0.0137162 -3.58713e-21)
(-0.526243 -0.0221403 2.86747e-20)
(-0.492259 -0.0309336 -3.38634e-20)
(-0.445131 -0.0397312 7.20942e-21)
(-0.384332 -0.0478488 1.61092e-20)
(-0.310376 -0.0545204 -1.0456e-20)
(-0.225221 -0.0588938 1.88159e-21)
(-0.132048 -0.0606299 3.93066e-21)
(-0.0345055 -0.0598864 -8.07201e-22)
(0.0635853 -0.0569429 1.45928e-22)
(0.159017 -0.0526092 5.64575e-22)
(0.249574 -0.0475041 -1.77225e-21)
(0.333769 -0.0421424 3.06323e-22)
(0.410845 -0.0368981 -4.26172e-22)
(0.480627 -0.0320041 -5.15555e-23)
(0.543269 -0.0275876 1.44389e-21)
(0.599249 -0.0236901 -4.52844e-23)
(0.649054 -0.0203144 -2.66687e-23)
(0.693451 -0.0174228 -8.91203e-22)
(0.732896 -0.0149786 2.84301e-22)
(0.768301 -0.0129136 -7.44298e-22)
(0.799819 -0.0111809 -1.06728e-22)
(0.828508 -0.00968319 7.73198e-23)
(0.85385 -0.00837872 -4.01117e-23)
(0.877174 -0.00716862 -3.68568e-22)
(0.896928 -0.00608165 2.75331e-22)
(0.915362 -0.00504645 -3.80236e-23)
(0.929578 -0.00417759 1.07644e-22)
(0.943834 -0.00336091 1.68765e-22)
(0.952916 -0.00277521 -6.56284e-23)
(0.964519 -0.00217793 3.75427e-23)
(0.968979 -0.00188307 -3.08155e-23)
(0.980108 -0.00141986 -3.5622e-24)
(-0.37802 0.0643739 4.0438e-20)
(-0.410663 0.0572518 -7.61492e-20)
(-0.438516 0.0500196 4.80474e-20)
(-0.46355 0.0419007 1.10499e-20)
(-0.484344 0.0330469 9.00436e-21)
(-0.500443 0.0234745 -3.99699e-20)
(-0.51097 0.0132295 2.38499e-20)
(-0.514847 0.00219862 -3.42074e-20)
(-0.511256 -0.00975703 8.03633e-20)
(-0.499081 -0.0226344 -5.2662e-20)
(-0.476923 -0.0364306 2.48861e-20)
(-0.443377 -0.0508793 -6.75218e-21)
(-0.39716 -0.0653964 3.5519e-21)
(-0.337719 -0.0788377 -5.62024e-21)
(-0.265501 -0.0899076 -1.09235e-20)
(-0.182481 -0.0971679 4.15044e-21)
(-0.0918792 -0.100065 -2.42144e-21)
(0.00276675 -0.0987992 1.84547e-21)
(0.0976901 -0.093884 1.04158e-21)
(0.189753 -0.0867072 1.40136e-21)
(0.276944 -0.0782642 -1.1335e-21)
(0.357897 -0.0694106 -1.97105e-22)
(0.431935 -0.0607601 6.94735e-23)
(0.498929 -0.0526926 1.6188e-21)
(0.559053 -0.0454162 -3.58486e-21)
(0.612782 -0.038997 8.54692e-22)
(0.660587 -0.0334387 4.98575e-22)
(0.703213 -0.0286782 -9.13917e-22)
(0.74109 -0.0246551 1.5616e-21)
(0.775105 -0.0212566 9.12343e-22)
(0.80539 -0.0184067 -1.42809e-21)
(0.83299 -0.0159449 1.43912e-21)
(0.857379 -0.0138029 -3.49852e-23)
(0.879885 -0.0118163 -1.93648e-22)
(0.898959 -0.0100327 -5.36431e-22)
(0.91684 -0.00833217 -1.77028e-22)
(0.93063 -0.00690514 -2.50754e-22)
(0.94456 -0.00556095 -2.32136e-22)
(0.953412 -0.00459765 4.51771e-24)
(0.96484 -0.00361203 -2.33299e-22)
(0.969202 -0.00312648 -3.14616e-23)
(0.980226 -0.0023606 -3.89976e-23)
(-0.33071 0.0869888 2.13229e-21)
(-0.36043 0.0775371 -2.99551e-20)
(-0.384756 0.067643 5.52979e-20)
(-0.406528 0.0566086 -1.47687e-20)
(-0.424324 0.0445485 -3.18655e-20)
(-0.437685 0.0315106 7.13928e-20)
(-0.445855 0.0175435 -3.22615e-20)
(-0.447851 0.00254411 -6.12854e-20)
(-0.44297 -0.0137095 1.68044e-20)
(-0.430094 -0.0312322 3.59877e-21)
(-0.407942 -0.0500585 -1.00392e-20)
(-0.375127 -0.0698678 3.63826e-20)
(-0.330309 -0.0898896 6.7476e-21)
(-0.272895 -0.108522 -1.08947e-20)
(-0.203241 -0.12393 -3.03893e-22)
(-0.123344 -0.134092 -5.65767e-21)
(-0.0364273 -0.138223 8.99541e-21)
(0.0541165 -0.136127 -3.15816e-21)
(0.144593 -0.129387 1.20641e-21)
(0.231972 -0.11944 -9.19596e-22)
(0.314524 -0.107753 -1.86639e-21)
(0.391035 -0.095522 2.32775e-22)
(0.460928 -0.0835897 -3.44037e-21)
(0.52413 -0.0724722 3.04348e-21)
(0.580832 -0.062452 4.97187e-22)
(0.631501 -0.0536172 1.26334e-21)
(0.676585 -0.0459703 -5.18671e-21)
(0.716796 -0.0394225 3.22063e-21)
(0.752529 -0.0338904 1.4084e-21)
(0.784636 -0.0292186 -1.78013e-21)
(0.813223 -0.0253041 1.06563e-21)
(0.839313 -0.0219259 -5.71535e-22)
(0.862378 -0.0189913 2.69253e-22)
(0.88374 -0.0162708 -1.42962e-21)
(0.901857 -0.0138302 1.25089e-21)
(0.918959 -0.0114999 -2.00686e-22)
(0.932142 -0.00954496 5.98568e-22)
(0.945607 -0.00769794 3.29375e-22)
(0.95413 -0.00637576 2.3853e-22)
(0.965306 -0.00501655 2.63687e-22)
(0.969528 -0.00434901 -6.91274e-23)
(0.980399 -0.00329001 3.77879e-23)
(-0.272536 0.106747 1.70044e-20)
(-0.298383 0.0954189 7.00765e-20)
(-0.318485 0.0831555 -2.69818e-20)
(-0.336311 0.0695221 -1.19831e-19)
(-0.350553 0.0545778 1.44372e-19)
(-0.36071 0.0384156 -7.73469e-21)
(-0.366143 0.021072 -4.60682e-20)
(-0.365982 0.00250322 4.15382e-20)
(-0.359649 -0.0176166 -4.81071e-20)
(-0.346037 -0.03933 4.03084e-20)
(-0.323996 -0.0627399 -1.53556e-21)
(-0.292177 -0.0875179 -2.87144e-20)
(-0.249166 -0.11275 -6.5347e-21)
(-0.194341 -0.136409 1.18301e-20)
(-0.127984 -0.156136 2.17264e-20)
(-0.0520908 -0.169234 -6.0744e-21)
(0.0302985 -0.17436 -1.20322e-20)
(0.115718 -0.171529 4.9006e-21)
(0.200559 -0.163048 1.18355e-21)
(0.282253 -0.150434 8.59499e-22)
(0.35921 -0.13564 2.81282e-21)
(0.43041 -0.12019 -1.84189e-21)
(0.495387 -0.105139 -3.54034e-21)
(0.554117 -0.091128 -3.2658e-21)
(0.606798 -0.0785088 6.49923e-21)
(0.653879 -0.0673885 5.08446e-22)
(0.695772 -0.0577674 -2.49747e-21)
(0.733146 -0.0495313 -1.82309e-21)
(0.766354 -0.0425747 4.33831e-21)
(0.796206 -0.0367018 1.14053e-21)
(0.822776 -0.0317863 6.52344e-22)
(0.847061 -0.0275498 -7.44909e-22)
(0.868533 -0.0238778 3.00576e-22)
(0.88851 -0.0204762 1.16387e-21)
(0.905462 -0.0174287 4.6541e-22)
(0.921607 -0.0145137 -1.6942e-22)
(0.934044 -0.0120698 3.14466e-22)
(0.946931 -0.00975183 -2.64531e-22)
(0.955044 -0.00809513 2.73785e-23)
(0.965903 -0.00638165 -5.13895e-22)
(0.969947 -0.00554355 1.85039e-22)
(0.980623 -0.00420412 1.78935e-23)
(-0.206786 0.12319 2.27457e-20)
(-0.227932 0.110454 -2.11253e-19)
(-0.243338 0.0962538 9.1026e-20)
(-0.256761 0.0804216 -5.182e-21)
(-0.267121 0.0629901 9.20407e-20)
(-0.273837 0.0441068 -3.99092e-20)
(-0.276354 0.0238069 3.96588e-21)
(-0.273922 0.00213078 -8.31079e-20)
(-0.266076 -0.0213779 9.58375e-20)
(-0.251723 -0.0467646 -5.29064e-21)
(-0.229842 -0.0742391 -3.44229e-20)
(-0.199155 -0.103522 -1.61396e-20)
(-0.158189 -0.133629 1.88374e-20)
(-0.106305 -0.162178 8.1179e-21)
(-0.0437797 -0.186145 1.72888e-20)
(0.0275586 -0.20195 -3.11792e-20)
(0.104619 -0.207894 -1.38909e-21)
(0.183942 -0.204759 2.3286e-21)
(0.262277 -0.194543 9.55401e-22)
(0.337463 -0.179406 -1.02304e-21)
(0.408112 -0.161695 -2.75489e-21)
(0.473401 -0.143228 -1.07387e-21)
(0.532969 -0.125257 9.24478e-21)
(0.586822 -0.108538 -1.56248e-21)
(0.635149 -0.0934846 -6.9223e-21)
(0.678363 -0.0802238 3.69773e-21)
(0.716826 -0.0687539 2.45749e-21)
(0.751153 -0.0589367 -5.09829e-21)
(0.781647 -0.0506466 4.38061e-21)
(0.809067 -0.04365 -5.25928e-21)
(0.833451 -0.0378011 -2.03742e-21)
(0.855771 -0.0327686 1.51144e-21)
(0.875493 -0.028419 3.48806e-23)
(0.893937 -0.0243947 2.93757e-22)
(0.909589 -0.020796 1.44913e-22)
(0.924659 -0.0173475 -1.20175e-21)
(0.93625 -0.014459 -7.69423e-22)
(0.948477 -0.0117071 4.02484e-22)
(0.95612 -0.00974424 -6.02847e-22)
(0.96661 -0.00769927 5.33918e-22)
(0.970449 -0.00670411 1.19662e-22)
(0.980894 -0.00509946 -4.0411e-23)
(-0.136705 0.135986 5.41834e-20)
(-0.152556 0.122333 -7.23954e-20)
(-0.162945 0.106754 -7.31409e-20)
(-0.171704 0.0892025 -1.53337e-20)
(-0.17802 0.0697482 1.49059e-19)
(-0.181225 0.0485958 -2.1711e-19)
(-0.180781 0.0258126 1.12886e-19)
(-0.176082 0.00149387 6.27387e-20)
(-0.166714 -0.0249124 1.47077e-20)
(-0.151589 -0.0534407 -7.30411e-20)
(-0.129809 -0.0844403 5.80809e-20)
(-0.100203 -0.117753 -4.35116e-20)
(-0.061305 -0.15237 8.16261e-21)
(-0.0123962 -0.185673 9.55459e-21)
(0.0461429 -0.213326 -8.66041e-22)
(0.11256 -0.231646 -3.8058e-20)
(0.183567 -0.238767 1.97297e-20)
(0.255986 -0.235387 4.98367e-21)
(0.327106 -0.223589 1.17837e-21)
(0.395119 -0.206144 1.62297e-21)
(0.458919 -0.185759 -3.47159e-21)
(0.517884 -0.164523 -1.83144e-21)
(0.571742 -0.143867 5.05612e-22)
(0.620509 -0.12465 -4.1343e-22)
(0.66434 -0.107343 -1.1297e-21)
(0.703594 -0.0920969 -4.74284e-22)
(0.738566 -0.0789091 -1.70696e-21)
(0.769804 -0.0676204 4.22843e-21)
(0.797551 -0.0580883 -9.30131e-23)
(0.822508 -0.0500449 2.4329e-21)
(0.844671 -0.0433294 -2.9164e-21)
(0.86498 -0.037562 2.52771e-22)
(0.882902 -0.0325944 1.34596e-21)
(0.899754 -0.0280063 2.04834e-21)
(0.914046 -0.023914 -1.78884e-21)
(0.927979 -0.0199854 9.04102e-22)
(0.93867 -0.0166995 -1.19249e-21)
(0.950187 -0.0135531 2.2412e-22)
(0.957321 -0.0113148 2.02326e-22)
(0.967406 -0.00896333 3.28938e-23)
(0.97102 -0.00782596 -2.91806e-22)
(0.981205 -0.00597315 7.67288e-23)
(-0.0652513 0.144467 -1.87301e-19)
(-0.0754526 0.130918 1.41257e-20)
(-0.0806693 0.114568 2.50309e-20)
(-0.0846451 0.0958277 8.82696e-20)
(-0.0868534 0.0748745 -1.35373e-19)
(-0.0865612 0.0519424 -3.58545e-20)
(-0.0831927 0.0271692 6.99476e-20)
(-0.076281 0.000621137 -2.06799e-20)
(-0.0653846 -0.0281912 -4.22895e-20)
(-0.049407 -0.0593698 4.1218e-20)
(-0.0275495 -0.0934038 1.12165e-20)
(0.00123451 -0.130325 -3.2975e-20)
(0.0382785 -0.168866 3.98856e-20)
(0.08461 -0.206189 -1.85806e-20)
(0.139342 -0.237378 6.81212e-21)
(0.200421 -0.258342 3.97168e-20)
(0.264849 -0.266768 -2.39476e-20)
(0.329807 -0.263136 2.23589e-21)
(0.393111 -0.249963 -3.18867e-21)
(0.453423 -0.23048 -2.14429e-21)
(0.509971 -0.207721 1.06431e-20)
(0.562331 -0.184012 -5.33072e-21)
(0.610304 -0.160939 -6.20943e-21)
(0.653898 -0.139457 1.82108e-21)
(0.693211 -0.120093 -2.94014e-22)
(0.728526 -0.103023 4.81322e-22)
(0.760058 -0.0882506 5.48519e-21)
(0.788277 -0.0756001 7.96986e-22)
(0.813352 -0.0649155 -8.38184e-22)
(0.835919 -0.0558989 -8.8977e-22)
(0.855927 -0.0483792 -8.5607e-22)
(0.874279 -0.0419337 -1.46027e-21)
(0.890434 -0.0364038 3.26242e-22)
(0.905713 -0.031308 -2.16676e-21)
(0.918648 -0.0267777 2.85135e-22)
(0.931437 -0.0224216 1.51167e-21)
(0.941214 -0.0187852 -3.84313e-22)
(0.952001 -0.0152843 5.25128e-22)
(0.958609 -0.012802 8.21028e-22)
(0.968268 -0.0101699 1.03824e-22)
(0.971645 -0.00890578 -7.79925e-23)
(0.98155 -0.00682295 4.4566e-23)
(0.00493239 0.148902 2.23866e-20)
(0.000970791 0.136156 -1.11674e-19)
(0.000595882 0.119617 5.88538e-20)
(0.00141004 0.100298 3.90552e-21)
(0.00333422 0.0784054 -2.85022e-20)
(0.00709093 0.0541998 1.92123e-19)
(0.0133215 0.0279138 2.6128e-20)
(0.0224117 -0.000495687 -1.00626e-19)
(0.0348895 -0.0311799 -7.77011e-20)
(0.05185 -0.0645286 1.00291e-19)
(0.0740496 -0.101095 -7.78236e-20)
(0.102541 -0.141089 6.3688e-20)
(0.138442 -0.183033 -6.21665e-20)
(0.182486 -0.223855 3.85121e-21)
(0.233517 -0.258588 1.09847e-20)
(0.289258 -0.282068 6.99722e-20)
(0.346815 -0.291609 -1.52193e-20)
(0.403866 -0.287802 -2.09004e-21)
(0.458898 -0.273497 -4.83774e-21)
(0.511125 -0.252296 -2.34229e-21)
(0.560147 -0.227511 -2.17341e-22)
(0.605733 -0.201662 4.96842e-21)
(0.647742 -0.176471 -1.08156e-20)
(0.686153 -0.152978 -3.42075e-21)
(0.72099 -0.131763 6.06273e-21)
(0.75245 -0.113039 -4.02214e-21)
(0.780655 -0.0968183 6.13733e-21)
(0.805981 -0.0829151 -5.22807e-21)
(0.828521 -0.0711651 1.87043e-21)
(0.848837 -0.0612446 -1.49382e-21)
(0.86682 -0.0529782 1.13765e-21)
(0.883331 -0.0459057 8.4198e-22)
(0.897819 -0.0398632 -2.97638e-21)
(0.911601 -0.0343101 4.77659e-22)
(0.923234 -0.0293931 -6.51333e-22)
(0.934915 -0.0246586 -5.71906e-22)
(0.943798 -0.0207166 9.7896e-22)
(0.953863 -0.0168997 -6.7303e-22)
(0.959946 -0.014204 -6.68013e-22)
(0.969173 -0.011317 -3.98897e-22)
(0.97231 -0.00994159 -3.4846e-22)
(0.981922 -0.0076473 -2.30333e-22)
(0.0717995 0.150049 -2.42213e-19)
(0.0743502 0.138028 2.57558e-19)
(0.0786646 0.121896 -3.03875e-19)
(0.0841272 0.102625 -3.53495e-20)
(0.0901509 0.0803836 2.07474e-19)
(0.097359 0.0554493 -4.18958e-21)
(0.106415 0.0281176 -4.86236e-20)
(0.117766 -0.00167679 3.56294e-20)
(0.132 -0.0338204 -2.64267e-20)
(0.150155 -0.0689317 -5.70801e-20)
(0.173073 -0.107583 6.32719e-20)
(0.201771 -0.150094 3.10603e-21)
(0.23716 -0.195104 -3.12827e-20)
(0.279509 -0.239291 -4.35196e-20)
(0.327211 -0.27701 8.68779e-20)
(0.377649 -0.302612 -5.74763e-20)
(0.428128 -0.313131 1.37131e-20)