/*--------------------------------*- C++ -*----------------------------------*\
  =========                 |
  \\      /  F ield         | OpenFOAM: The Open Source CFD Toolbox
   \\    /   O peration     | Website:  https://openfoam.org
    \\  /    A nd           | Version:  7
     \\/     M anipulation  |
\*---------------------------------------------------------------------------*/
FoamFile
{
    version     2.0;
    format      ascii;
    class       volScalarField;
    location    "10";
    object      p;
}
// * * * * * * * * * * * * * * * * * * * * * * * * * * * * * * * * * * * * * //

dimensions      [0 2 -2 0 0 0 0];

internalField   nonuniform List<scalar> 
12772
(
-0.306429
-0.312006
-0.313938
-0.314356
-0.313487
-0.311405
-0.308274
-0.304253
-0.299458
-0.293812
-0.307182
-0.312633
-0.314486
-0.31483
-0.313893
-0.31175
-0.308561
-0.304494
-0.299654
-0.293884
-0.308683
-0.313885
-0.315576
-0.315774
-0.314702
-0.312435
-0.309132
-0.304969
-0.300042
-0.29402
-0.31092
-0.315752
-0.317203
-0.317182
-0.315907
-0.313454
-0.309976
-0.30567
-0.300612
-0.294201
-0.313877
-0.318221
-0.319354
-0.319041
-0.317495
-0.314793
-0.311083
-0.306581
-0.30135
-0.294381
-0.317535
-0.321277
-0.322015
-0.321339
-0.319453
-0.316439
-0.312435
-0.307687
-0.30225
-0.294499
-0.32187
-0.324901
-0.325168
-0.324058
-0.321766
-0.318376
-0.314016
-0.308966
-0.303294
-0.294674
-0.326857
-0.329072
-0.328795
-0.327181
-0.324417
-0.320588
-0.31581
-0.310397
-0.304351
-0.294857
-0.332468
-0.333767
-0.332876
-0.330691
-0.327388
-0.323057
-0.317799
-0.311967
-0.3055
-0.294896
-0.338677
-0.338965
-0.337391
-0.334569
-0.330664
-0.325771
-0.319969
-0.313655
-0.306719
-0.294767
-0.345458
-0.344642
-0.342319
-0.338798
-0.334232
-0.328718
-0.32231
-0.315451
-0.307983
-0.294445
-0.352784
-0.350774
-0.347642
-0.343361
-0.338078
-0.33189
-0.32482
-0.31735
-0.309282
-0.293865
-0.360627
-0.35734
-0.353338
-0.348244
-0.342193
-0.335284
-0.327501
-0.319361
-0.310617
-0.293033
-0.368962
-0.364315
-0.359389
-0.353433
-0.346571
-0.338901
-0.330365
-0.321501
-0.311995
-0.291911
-0.377761
-0.371675
-0.365776
-0.358916
-0.351208
-0.34275
-0.333433
-0.323804
-0.313447
-0.290521
-0.386992
-0.379395
-0.372479
-0.364681
-0.356101
-0.346839
-0.336736
-0.326327
-0.315034
-0.288981
-0.396622
-0.387446
-0.379476
-0.370714
-0.361249
-0.351183
-0.340311
-0.329139
-0.3168
-0.287391
-0.406609
-0.395797
-0.386745
-0.377002
-0.366648
-0.355797
-0.344214
-0.332331
-0.318639
-0.285552
-0.416907
-0.404413
-0.394259
-0.383527
-0.372294
-0.360701
-0.348538
-0.336093
-0.320745
-0.284407
-0.427465
-0.413254
-0.401986
-0.390266
-0.37817
-0.365898
-0.353353
-0.34075
-0.325273
-0.29349
-0.438224
-0.422276
-0.409891
-0.397185
-0.384241
-0.371333
-0.358529
-0.346136
-0.33424
-0.332024
-0.44912
-0.43143
-0.417933
-0.404247
-0.390456
-0.376896
-0.36375
-0.351308
-0.340286
-0.344754
-0.460088
-0.440664
-0.426067
-0.411411
-0.396769
-0.382513
-0.368871
-0.356011
-0.344371
-0.349096
-0.471057
-0.449919
-0.434244
-0.418633
-0.403138
-0.388148
-0.373879
-0.360385
-0.347817
-0.35129
-0.481951
-0.459133
-0.442409
-0.425865
-0.40952
-0.39376
-0.378758
-0.364458
-0.350786
-0.351956
-0.49269
-0.468235
-0.4505
-0.43305
-0.415859
-0.399294
-0.38346
-0.368189
-0.353224
-0.351472
-0.503188
-0.477149
-0.458447
-0.440122
-0.422088
-0.404682
-0.387922
-0.371532
-0.355121
-0.350163
-0.513345
-0.485786
-0.466169
-0.447001
-0.42813
-0.409844
-0.392068
-0.374433
-0.356466
-0.348203
-0.523055
-0.49405
-0.473572
-0.4536
-0.433892
-0.414688
-0.395814
-0.376826
-0.357226
-0.345669
-0.532197
-0.501832
-0.480556
-0.459815
-0.439274
-0.419111
-0.399062
-0.378635
-0.357351
-0.342587
-0.54064
-0.509014
-0.487006
-0.465536
-0.444162
-0.423
-0.40171
-0.379772
-0.356777
-0.338941
-0.548241
-0.515466
-0.492798
-0.470638
-0.448432
-0.426235
-0.403642
-0.380145
-0.355432
-0.334692
-0.554844
-0.521049
-0.497797
-0.47499
-0.451952
-0.428685
-0.404741
-0.37965
-0.353234
-0.329781
-0.560287
-0.525616
-0.501862
-0.478449
-0.454581
-0.430214
-0.404881
-0.378184
-0.350098
-0.324136
-0.564399
-0.529012
-0.504843
-0.480867
-0.456174
-0.430683
-0.403938
-0.37564
-0.345934
-0.31768
-0.567004
-0.531078
-0.506584
-0.482091
-0.45658
-0.429951
-0.401784
-0.37191
-0.340658
-0.310331
-0.567926
-0.531651
-0.506927
-0.481966
-0.455648
-0.427876
-0.398295
-0.366894
-0.334187
-0.302012
-0.566987
-0.530568
-0.505713
-0.480333
-0.453228
-0.424322
-0.393354
-0.360494
-0.326444
-0.29265
-0.564013
-0.527668
-0.502782
-0.47704
-0.449175
-0.419156
-0.386849
-0.352625
-0.317364
-0.282182
-0.558839
-0.522794
-0.497983
-0.471937
-0.443349
-0.412257
-0.378682
-0.343208
-0.306889
-0.270553
-0.551308
-0.515798
-0.491168
-0.464883
-0.43562
-0.403514
-0.368763
-0.33218
-0.294974
-0.257721
-0.541276
-0.50654
-0.482202
-0.455748
-0.425872
-0.392831
-0.357021
-0.31949
-0.281587
-0.243654
-0.528616
-0.494897
-0.47096
-0.444417
-0.414003
-0.380125
-0.343398
-0.305105
-0.26671
-0.228335
-0.513219
-0.480761
-0.457337
-0.430789
-0.399931
-0.365337
-0.327855
-0.289003
-0.250337
-0.211756
-0.495001
-0.464041
-0.441245
-0.414786
-0.383591
-0.348423
-0.310373
-0.271182
-0.232478
-0.193926
-0.473898
-0.444672
-0.422616
-0.396349
-0.364941
-0.329362
-0.290949
-0.251654
-0.213156
-0.174869
-0.449875
-0.422609
-0.401408
-0.375444
-0.343965
-0.308156
-0.2696
-0.230446
-0.192402
-0.154606
-0.422925
-0.397835
-0.377603
-0.352063
-0.320668
-0.284829
-0.246366
-0.207604
-0.170256
-0.133092
-0.393069
-0.37036
-0.35121
-0.326224
-0.295084
-0.259428
-0.221306
-0.183202
-0.146811
-0.110247
-0.360361
-0.340222
-0.322267
-0.297971
-0.267268
-0.232023
-0.194498
-0.157331
-0.122228
-0.086503
-0.324883
-0.307489
-0.290841
-0.267378
-0.237306
-0.202706
-0.16604
-0.130047
-0.0961962
-0.0621839
-0.286751
-0.272257
-0.257025
-0.234545
-0.205305
-0.171593
-0.136046
-0.101482
-0.0691532
-0.0369154
-0.246107
-0.234653
-0.220943
-0.1996
-0.171398
-0.138817
-0.104648
-0.0717548
-0.0411961
-0.0108308
-0.203127
-0.194829
-0.182747
-0.162698
-0.135735
-0.104535
-0.0719975
-0.0410017
-0.0124231
0.0159062
-0.158009
-0.152969
-0.142613
-0.124001
-0.0985067
-0.068922
-0.0382588
-0.00937612
0.0170345
0.0431324
-0.110961
-0.109291
-0.100735
-0.0837264
-0.059899
-0.0321648
-0.00361179
0.022959
0.047036
0.0706587
-0.0622439
-0.0640213
-0.0573483
-0.0420873
-0.0201246
0.00553368
0.0317526
0.055841
0.0774501
0.0981887
-0.0121712
-0.0173828
-0.0126919
0.00068006
0.0205891
0.0439592
0.0676365
0.0891169
0.108126
0.125186
0.0389999
0.0303307
0.032971
0.0443238
0.0620039
0.0828897
0.103842
0.122629
0.138762
0.150911
0.0909649
0.0788302
0.079364
0.08858
0.103873
0.122103
0.140184
0.15618
0.168767
0.174599
0.1434
0.127816
0.126198
0.133175
0.145945
0.16138
0.176497
0.189561
0.197552
0.197391
0.195975
0.176977
0.173175
0.177827
0.187962
0.200498
0.212575
0.222681
0.22768
0.225872
0.24835
0.225995
0.21999
0.222248
0.229658
0.239212
0.24818
0.255212
0.257449
0.254178
0.300184
0.274544
0.266332
0.266151
0.270769
0.27728
0.283091
0.286967
0.286352
0.28131
0.351134
0.322302
0.311894
0.309246
0.311034
0.314469
0.317099
0.317801
0.314318
0.307259
0.40086
0.368944
0.356368
0.351251
0.350198
0.350553
0.35001
0.347556
0.341236
0.332013
0.449028
0.414153
0.399453
0.391887
0.388011
0.385315
0.381638
0.376078
0.366978
0.355523
0.495311
0.457618
0.440855
0.430887
0.424236
0.418547
0.411807
0.403225
0.391424
0.377723
0.539396
0.499039
0.480292
0.46799
0.458643
0.450052
0.440352
0.42886
0.414467
0.39855
0.580981
0.538128
0.517491
0.50295
0.491014
0.479644
0.467117
0.452856
0.436003
0.417937
0.619781
0.574613
0.552198
0.535535
0.521145
0.507146
0.491955
0.475093
0.455935
0.435819
0.655527
0.608238
0.584172
0.565527
0.548846
0.532398
0.514729
0.495458
0.474171
0.452132
0.687973
0.638766
0.613191
0.592726
0.57394
0.555247
0.535313
0.513847
0.490623
0.466814
0.716893
0.665983
0.639054
0.61695
0.596269
0.575559
0.553595
0.530164
0.505211
0.479806
0.742086
0.689696
0.66158
0.638036
0.615692
0.593212
0.56947
0.544325
0.517864
0.491055
0.763375
0.709735
0.680612
0.655842
0.632083
0.608101
0.582852
0.556255
0.528519
0.500512
0.780609
0.725959
0.696017
0.670249
0.645338
0.620135
0.593662
0.565889
0.53712
0.508132
0.793667
0.73825
0.707685
0.681158
0.655372
0.629242
0.601841
0.573177
0.543622
0.51388
0.802456
0.74652
0.715535
0.688496
0.662119
0.635365
0.607341
0.578078
0.547995
0.517743
0.806912
0.750709
0.719509
0.69221
0.665535
0.638466
0.610128
0.580565
0.550228
0.519756
0.807002
0.750785
0.719579
0.692275
0.665596
0.638524
0.610182
0.580618
0.550289
0.519848
0.802723
0.746746
0.715743
0.68869
0.662301
0.635536
0.607502
0.578231
0.548155
0.517942
0.794104
0.73862
0.708026
0.681476
0.655668
0.629518
0.602099
0.573417
0.54385
0.514106
0.781203
0.726464
0.696482
0.670681
0.64574
0.620507
0.594005
0.566202
0.5374
0.508375
0.764111
0.710363
0.68119
0.656378
0.632579
0.608557
0.583266
0.556625
0.528841
0.500771
0.742947
0.690432
0.662256
0.638662
0.616269
0.593739
0.569943
0.54474
0.518217
0.491327
0.717858
0.66681
0.639814
0.617652
0.596914
0.576143
0.554113
0.530612
0.505583
0.480084
0.68902
0.639666
0.614019
0.59349
0.574638
0.555875
0.535865
0.514317
0.491006
0.46709
0.656633
0.609192
0.58505
0.566337
0.549583
0.533057
0.515303
0.495941
0.474559
0.452402
0.620924
0.575604
0.553111
0.536376
0.521909
0.507826
0.492541
0.47558
0.456322
0.436078
0.582142
0.539137
0.518423
0.503808
0.491792
0.480332
0.467707
0.453342
0.436383
0.418181
0.540554
0.50005
0.481226
0.468851
0.459423
0.450741
0.440939
0.429338
0.414837
0.398776
0.496447
0.458615
0.441779
0.431739
0.425008
0.419227
0.412384
0.403691
0.391781
0.377928
0.450127
0.415123
0.400353
0.39272
0.388766
0.385979
0.382199
0.37653
0.36732
0.355705
0.401909
0.369875
0.357235
0.352055
0.350927
0.351195
0.350552
0.34799
0.341563
0.332174
0.352121
0.323183
0.312718
0.310013
0.311732
0.315085
0.317619
0.318217
0.31463
0.307402
0.301101
0.275369
0.267106
0.266873
0.27143
0.277866
0.283587
0.287365
0.286653
0.281447
0.249191
0.226755
0.220707
0.222922
0.230278
0.239765
0.248653
0.255593
0.257744
0.254334
0.196735
0.17767
0.173832
0.178448
0.188538
0.201017
0.213024
0.223048
0.22798
0.226111
0.144077
0.128438
0.126792
0.133741
0.146476
0.161864
0.176923
0.189917
0.197869
0.197754
0.0915571
0.07938
0.079893
0.0890895
0.104357
0.12255
0.140587
0.156529
0.169091
0.175091
0.0395087
0.0308084
0.033435
0.0447762
0.0624394
0.0832997
0.104219
0.122968
0.139076
0.15132
-0.0117439
-0.016976
-0.0122921
0.00107568
0.0209766
0.0443308
0.0679852
0.0894376
0.108423
0.125513
-0.0618951
-0.0636832
-0.0570111
-0.0417475
-0.0197848
0.00586649
0.0320714
0.0561403
0.0777297
0.0984744
-0.110687
-0.109019
-0.100458
-0.0834405
-0.0596058
-0.0318704
-0.0033231
0.023236
0.0472994
0.0709209
-0.157805
-0.152758
-0.142393
-0.123766
-0.0982587
-0.0686651
-0.0379999
-0.00912147
0.0172813
0.0433764
-0.202988
-0.194677
-0.182581
-0.162513
-0.13553
-0.104314
-0.0717676
-0.0407691
-0.0121926
0.0161351
-0.246028
-0.234554
-0.220827
-0.199461
-0.171234
-0.13863
-0.104446
-0.0715438
-0.0409813
-0.0106151
-0.286725
-0.272207
-0.256954
-0.234448
-0.205179
-0.171439
-0.135871
-0.101292
-0.0689538
-0.0367118
-0.324906
-0.307483
-0.290811
-0.267319
-0.237215
-0.202584
-0.165891
-0.129877
-0.0960111
-0.0619925
-0.360426
-0.340255
-0.322275
-0.297947
-0.267209
-0.231929
-0.194373
-0.157181
-0.122055
-0.0863261
-0.393172
-0.370427
-0.35125
-0.326231
-0.295054
-0.25936
-0.221203
-0.183071
-0.146657
-0.11008
-0.423059
-0.397931
-0.377671
-0.352097
-0.320664
-0.284785
-0.246285
-0.20749
-0.170117
-0.132935
-0.450035
-0.42273
-0.4015
-0.375502
-0.343984
-0.308134
-0.269539
-0.23035
-0.192277
-0.15446
-0.47408
-0.444813
-0.422728
-0.396426
-0.36498
-0.32936
-0.290905
-0.251574
-0.213044
-0.174733
-0.4952
-0.464199
-0.441373
-0.41488
-0.383646
-0.348437
-0.310346
-0.271117
-0.232379
-0.193802
-0.513431
-0.480931
-0.457479
-0.430897
-0.4
-0.365366
-0.327843
-0.288951
-0.250251
-0.211643
-0.528836
-0.495077
-0.471111
-0.444535
-0.414085
-0.380167
-0.343398
-0.305066
-0.266636
-0.228232
-0.541501
-0.506726
-0.482359
-0.455874
-0.425962
-0.392882
-0.357032
-0.319463
-0.281524
-0.243562
-0.551535
-0.515987
-0.49133
-0.465015
-0.435717
-0.403574
-0.368784
-0.332162
-0.294921
-0.257638
-0.559066
-0.522984
-0.498147
-0.472072
-0.44345
-0.412324
-0.378711
-0.3432
-0.306846
-0.27048
-0.564238
-0.527857
-0.502946
-0.477176
-0.44928
-0.419228
-0.386885
-0.352624
-0.31733
-0.282118
-0.567207
-0.530754
-0.505874
-0.480468
-0.453334
-0.424396
-0.393395
-0.360501
-0.326418
-0.292594
-0.568139
-0.531833
-0.507085
-0.482099
-0.455754
-0.427953
-0.39834
-0.366906
-0.334167
-0.301964
-0.56721
-0.531254
-0.506737
-0.482221
-0.456684
-0.430028
-0.401831
-0.371927
-0.340645
-0.31029
-0.564596
-0.529181
-0.504991
-0.480993
-0.456276
-0.43076
-0.403987
-0.375661
-0.345926
-0.317645
-0.560474
-0.525777
-0.502004
-0.47857
-0.45468
-0.430289
-0.404932
-0.378208
-0.350094
-0.324108
-0.555021
-0.521202
-0.497932
-0.475105
-0.452047
-0.428758
-0.404791
-0.379676
-0.353235
-0.329758
-0.548408
-0.51561
-0.492925
-0.470748
-0.448523
-0.426305
-0.403692
-0.380172
-0.355435
-0.334674
-0.540797
-0.50915
-0.487126
-0.465639
-0.444248
-0.423068
-0.401758
-0.3798
-0.356783
-0.338928
-0.532343
-0.501959
-0.480668
-0.459912
-0.439355
-0.419175
-0.399109
-0.378662
-0.357358
-0.342578
-0.52319
-0.494168
-0.473677
-0.45369
-0.433968
-0.414748
-0.395858
-0.376853
-0.357235
-0.345665
-0.51347
-0.485896
-0.466266
-0.447086
-0.4282
-0.4099
-0.392109
-0.374459
-0.356476
-0.348202
-0.503303
-0.47725
-0.458537
-0.4402
-0.422154
-0.404734
-0.38796
-0.371557
-0.355132
-0.350165
-0.492796
-0.468329
-0.450583
-0.433122
-0.415919
-0.399343
-0.383496
-0.368213
-0.353235
-0.351477
-0.482047
-0.459218
-0.442485
-0.425931
-0.409576
-0.393805
-0.378792
-0.36448
-0.350797
-0.351963
-0.471144
-0.449997
-0.434313
-0.418694
-0.403189
-0.388189
-0.37391
-0.360405
-0.347826
-0.351298
-0.460168
-0.440735
-0.426131
-0.411467
-0.396815
-0.38255
-0.368899
-0.356029
-0.34438
-0.349106
-0.449192
-0.431495
-0.417992
-0.404298
-0.390498
-0.376929
-0.363775
-0.351324
-0.340294
-0.344763
-0.438289
-0.422335
-0.409945
-0.397231
-0.384279
-0.371364
-0.358551
-0.346151
-0.334247
-0.332031
-0.427524
-0.413308
-0.402035
-0.390308
-0.378205
-0.365926
-0.353374
-0.340763
-0.325278
-0.293483
-0.41696
-0.404461
-0.394303
-0.383565
-0.372326
-0.360726
-0.348557
-0.336104
-0.320749
-0.284397
-0.406656
-0.395841
-0.386785
-0.377037
-0.366677
-0.35582
-0.344231
-0.332341
-0.318643
-0.285544
-0.396664
-0.387486
-0.379512
-0.370746
-0.361275
-0.351204
-0.340326
-0.329149
-0.316804
-0.287384
-0.387031
-0.379431
-0.372511
-0.364709
-0.356125
-0.346858
-0.336749
-0.326335
-0.315038
-0.288976
-0.377795
-0.371707
-0.365805
-0.358942
-0.351229
-0.342767
-0.333446
-0.323812
-0.313451
-0.290517
-0.368993
-0.364344
-0.359415
-0.353457
-0.346591
-0.338917
-0.330377
-0.321508
-0.311999
-0.291908
-0.360654
-0.357365
-0.353361
-0.348265
-0.342211
-0.335298
-0.327512
-0.319368
-0.310621
-0.293032
-0.352808
-0.350797
-0.347663
-0.34338
-0.338093
-0.331902
-0.32483
-0.317357
-0.309286
-0.293863
-0.345479
-0.344662
-0.342338
-0.338814
-0.334246
-0.328729
-0.322319
-0.315457
-0.307987
-0.294446
-0.338696
-0.338983
-0.337408
-0.334584
-0.330677
-0.325781
-0.319977
-0.313661
-0.306723
-0.294768
-0.332485
-0.333783
-0.332891
-0.330704
-0.3274
-0.323066
-0.317806
-0.311972
-0.305504
-0.294897
-0.326871
-0.329085
-0.328808
-0.327193
-0.324426
-0.320596
-0.315816
-0.310402
-0.304355
-0.294859
-0.321882
-0.324913
-0.325179
-0.324067
-0.321774
-0.318383
-0.314022
-0.30897
-0.303297
-0.294676
-0.317546
-0.321287
-0.322024
-0.321347
-0.31946
-0.316445
-0.31244
-0.30769
-0.302253
-0.2945
-0.313886
-0.318229
-0.319362
-0.319048
-0.3175
-0.314798
-0.311086
-0.306585
-0.301353
-0.294383
-0.310926
-0.315758
-0.317209
-0.317187
-0.315911
-0.313457
-0.309979
-0.305673
-0.300614
-0.294202
-0.308687
-0.313889
-0.31558
-0.315778
-0.314706
-0.312438
-0.309134
-0.304971
-0.300043
-0.294021
-0.307185
-0.312636
-0.314488
-0.314832
-0.313895
-0.311751
-0.308562
-0.304495
-0.299655
-0.293885
-0.30643
-0.312007
-0.313939
-0.314356
-0.313488
-0.311406
-0.308274
-0.304253
-0.299458
-0.293812
-0.289169
-0.284058
-0.278332
-0.272088
-0.265271
-0.257937
-0.250131
-0.2419
-0.233302
-0.224392
-0.215231
-0.205878
-0.196391
-0.186825
-0.177229
-0.167652
-0.158137
-0.148721
-0.139439
-0.130322
-0.121395
-0.112682
-0.104201
-0.0959669
-0.087993
-0.0802875
-0.0728592
-0.0657069
-0.0588453
-0.0522465
-0.0459709
-0.0398869
-0.0342602
-0.0285527
-0.023814
-0.0180406
-0.0149888
-0.00779923
-0.00884031
0.00365367
-0.00819379
0.0200992
-0.289584
-0.284387
-0.278611
-0.272343
-0.265503
-0.258149
-0.250327
-0.242083
-0.233472
-0.224552
-0.215382
-0.206022
-0.196528
-0.186954
-0.177353
-0.16777
-0.158248
-0.148827
-0.139539
-0.130417
-0.121485
-0.112766
-0.10428
-0.0960416
-0.0880632
-0.0803534
-0.0729211
-0.0657651
-0.0588998
-0.0522977
-0.046019
-0.0399321
-0.0343025
-0.0285928
-0.0238508
-0.0180767
-0.0150193
-0.00783383
-0.0088604
0.00361427
-0.00819174
0.0200382
-0.290408
-0.285038
-0.279166
-0.272848
-0.265963
-0.25857
-0.250716
-0.242444
-0.23381
-0.22487
-0.215683
-0.206307
-0.196799
-0.187212
-0.177598
-0.168003
-0.15847
-0.149038
-0.139739
-0.130606
-0.121664
-0.112935
-0.104439
-0.096191
-0.0882035
-0.0804852
-0.0730447
-0.065881
-0.0590086
-0.0523998
-0.0461147
-0.0400221
-0.0343866
-0.0286724
-0.0239238
-0.0181483
-0.0150794
-0.00790239
-0.00890002
0.00353602
-0.00818735
0.0199167
-0.291634
-0.286
-0.279986
-0.273596
-0.266641
-0.25919
-0.251288
-0.242977
-0.234309
-0.22534
-0.216127
-0.206729
-0.1972
-0.187595
-0.177963
-0.168351
-0.158801
-0.149352
-0.140037
-0.130888
-0.12193
-0.113187
-0.104676
-0.0964139
-0.0884129
-0.0806818
-0.0732292
-0.066054
-0.0591708
-0.0525519
-0.0462574
-0.040156
-0.0345118
-0.0287908
-0.0240324
-0.0182548
-0.0151688
-0.00800439
-0.00895877
0.00341948
-0.00818049
0.0197355
-0.293281
-0.287252
-0.281054
-0.27457
-0.267523
-0.259996
-0.252033
-0.243668
-0.234958
-0.225952
-0.216708
-0.207281
-0.197727
-0.188098
-0.178443
-0.168809
-0.159237
-0.149767
-0.140431
-0.131261
-0.122283
-0.11352
-0.10499
-0.0967088
-0.0886901
-0.0809419
-0.0734732
-0.0662828
-0.0593853
-0.052753
-0.0464458
-0.040333
-0.0346771
-0.0289472
-0.0241756
-0.0183954
-0.0152867
-0.00813905
-0.00903603
0.00326548
-0.00817094
0.0194958
-0.295397
-0.288719
-0.282334
-0.275751
-0.268588
-0.26097
-0.252932
-0.244507
-0.235744
-0.226696
-0.217414
-0.207955
-0.198371
-0.188714
-0.179033
-0.169372
-0.159775
-0.150278
-0.140917
-0.131722
-0.122719
-0.113931
-0.105378
-0.0970738
-0.089033
-0.0812638
-0.0737751
-0.0665658
-0.0596506
-0.0530016
-0.0466787
-0.0405516
-0.0348812
-0.0291403
-0.0243523
-0.0185689
-0.0154319
-0.00830536
-0.00913099
0.00307512
-0.00815843
0.0191992
-0.297597
-0.290466
-0.283814
-0.277109
-0.269823
-0.262092
-0.253967
-0.245473
-0.236653
-0.227557
-0.218235
-0.208741
-0.199124
-0.189436
-0.179725
-0.170035
-0.160408
-0.150882
-0.141492
-0.132267
-0.123235
-0.114419
-0.105837
-0.0975064
-0.0894395
-0.0816453
-0.0741329
-0.0669012
-0.0599648
-0.053296
-0.0469544
-0.0408103
-0.0351226
-0.0293686
-0.0245612
-0.0187741
-0.0156033
-0.00850209
-0.0092427
0.00284972
-0.00814262
0.0188475
-0.300139
-0.292888
-0.285519
-0.278629
-0.271197
-0.26334
-0.255119
-0.246548
-0.237667
-0.228521
-0.219158
-0.209626
-0.199976
-0.190255
-0.180512
-0.170791
-0.161132
-0.151573
-0.14215
-0.132893
-0.123828
-0.114979
-0.106365
-0.0980037
-0.0899069
-0.082084
-0.0745442
-0.0672866
-0.0603258
-0.0536342
-0.047271
-0.0411072
-0.0353995
-0.0296305
-0.0248005
-0.0190094
-0.0157994
-0.00872783
-0.00937005
0.00259082
-0.00812314
0.0184431
-0.302948
-0.295077
-0.287331
-0.280283
-0.272683
-0.264686
-0.256362
-0.247711
-0.238768
-0.229572
-0.220167
-0.210599
-0.200915
-0.191162
-0.181387
-0.171632
-0.161939
-0.152346
-0.142887
-0.133594
-0.124493
-0.115608
-0.106959
-0.0985624
-0.0904321
-0.0825769
-0.0750064
-0.0677196
-0.0607313
-0.0540138
-0.0476261
-0.0414403
-0.0357099
-0.0299241
-0.0250684
-0.0192731
-0.0160187
-0.00898096
-0.00951181
0.00230013
-0.00809956
0.0179884
-0.306062
-0.297532
-0.289282
-0.282039
-0.274252
-0.266106
-0.257673
-0.248941
-0.239937
-0.230693
-0.221249
-0.211647
-0.201931
-0.192147
-0.182339
-0.172551
-0.162823
-0.153193
-0.143697
-0.134365
-0.125225
-0.116301
-0.107613
-0.0991791
-0.0910118
-0.0831211
-0.0755165
-0.0681974
-0.0611785
-0.0544324
-0.0480175
-0.0418072
-0.0360516
-0.0302473
-0.025363
-0.0195633
-0.0162594
-0.00925976
-0.00966664
0.00197955
-0.00807142
0.0174862
-0.309429
-0.300173
-0.291325
-0.283861
-0.275874
-0.267571
-0.259028
-0.250217
-0.241154
-0.231867
-0.222389
-0.212756
-0.203012
-0.193198
-0.18336
-0.173539
-0.163776
-0.154109
-0.144574
-0.135201
-0.12602
-0.117054
-0.108325
-0.0998498
-0.0916425
-0.0837131
-0.0760714
-0.0687169
-0.0616646
-0.0548872
-0.0484425
-0.0422055
-0.0364222
-0.0305979
-0.0256822
-0.0198781
-0.0165196
-0.00956238
-0.00983315
0.00163109
-0.00803826
0.0169393
-0.312645
-0.302891
-0.293415
-0.285712
-0.277515
-0.269053
-0.260402
-0.251516
-0.242402
-0.233078
-0.223571
-0.213914
-0.204146
-0.194307
-0.184441
-0.174588
-0.164791
-0.155087
-0.145512
-0.136097
-0.126873
-0.117863
-0.10909
-0.100571
-0.0923204
-0.0843493
-0.0766677
-0.0692751
-0.0621866
-0.0553754
-0.0488985
-0.0426326
-0.0368193
-0.0309736
-0.0260236
-0.0202154
-0.0167975
-0.00988686
-0.0100099
0.00125686
-0.0079996
0.0163509
-0.316212
-0.305702
-0.295511
-0.287556
-0.279144
-0.270524
-0.261772
-0.252819
-0.243662
-0.234311
-0.224783
-0.215108
-0.205321
-0.195462
-0.185571
-0.175691
-0.16586
-0.15612
-0.146504
-0.137047
-0.127778
-0.118722
-0.109903
-0.101337
-0.0930417
-0.0850264
-0.0773021
-0.0698687
-0.0627416
-0.0558941
-0.0493826
-0.0430859
-0.0372403
-0.031372
-0.0263852
-0.020573
-0.0170911
-0.0102312
-0.0101954
0.000859074
-0.00795501
0.015724
-0.319747
-0.308504
-0.297576
-0.289353
-0.280725
-0.271958
-0.263116
-0.254108
-0.24492
-0.23555
-0.226011
-0.216327
-0.206529
-0.196655
-0.186744
-0.176838
-0.166977
-0.157201
-0.147545
-0.138045
-0.12873
-0.119628
-0.11076
-0.102146
-0.0938027
-0.0857406
-0.0779712
-0.0704947
-0.0633264
-0.0564405
-0.0498922
-0.0435628
-0.0376829
-0.0317907
-0.0267645
-0.0209488
-0.0173984
-0.0105934
-0.0103883
0.000439952
-0.007904
0.0150617
-0.323164
-0.311222
-0.29956
-0.291055
-0.28222
-0.273328
-0.264412
-0.255364
-0.246158
-0.236783
-0.227243
-0.217559
-0.207757
-0.197874
-0.187948
-0.178021
-0.168132
-0.158322
-0.148629
-0.139086
-0.129725
-0.120573
-0.111656
-0.102992
-0.0945988
-0.0864879
-0.0786711
-0.0711493
-0.0639377
-0.0570113
-0.0504241
-0.0440605
-0.0381441
-0.0322273
-0.0271591
-0.0213405
-0.0177172
-0.0109714
-0.0105869
1.61096e-06
-0.00784585
0.0143672
-0.326294
-0.313694
-0.301384
-0.292601
-0.283585
-0.274602
-0.265638
-0.256569
-0.247361
-0.237993
-0.228464
-0.218788
-0.208991
-0.199106
-0.189171
-0.179227
-0.169314
-0.159473
-0.149742
-0.140157
-0.13075
-0.12155
-0.112582
-0.103867
-0.0954225
-0.0872612
-0.0793954
-0.0718265
-0.0645699
-0.0576015
-0.0509738
-0.0445747
-0.0386203
-0.0326782
-0.0275661
-0.0217454
-0.0180453
-0.011363
-0.0107896
-0.000453697
-0.00777992
0.0136434
-0.328752
-0.315678
-0.302989
-0.293954
-0.284795
-0.275766
-0.266784
-0.257716
-0.248521
-0.239174
-0.229666
-0.220008
-0.210223
-0.200343
-0.190405
-0.180448
-0.170514
-0.160645
-0.150879
-0.141253
-0.131801
-0.122552
-0.113533
-0.104766
-0.0962696
-0.0880567
-0.0801404
-0.072523
-0.0652199
-0.0582081
-0.0515385
-0.0451028
-0.039109
-0.0331411
-0.0279833
-0.0221613
-0.0183813
-0.0117655
-0.0109962
-0.000922215
-0.00770841
0.0128946
-0.330265
-0.31718
-0.304473
-0.295166
-0.285884
-0.276856
-0.267888
-0.258842
-0.249679
-0.240365
-0.23089
-0.221261
-0.211498
-0.20163
-0.191695
-0.181731
-0.171781
-0.161885
-0.152084
-0.142417
-0.132918
-0.123618
-0.114545
-0.105722
-0.0971689
-0.0888999
-0.0809288
-0.0732585
-0.0659048
-0.0588456
-0.0521303
-0.0456547
-0.0396184
-0.0336222
-0.0284162
-0.0225907
-0.0187289
-0.0121782
-0.0112109
-0.0013986
-0.00763832
0.0121265
-0.330808
-0.317624
-0.305487
-0.296023
-0.286715
-0.277782
-0.268895
-0.259916
-0.250816
-0.241564
-0.232145
-0.222564
-0.21284
-0.203001
-0.193081
-0.18312
-0.173159
-0.163242
-0.153409
-0.1437
-0.134151
-0.124796
-0.115663
-0.106778
-0.0981613
-0.0898287
-0.0817949
-0.0740639
-0.0666517
-0.0595378
-0.0527697
-0.0462478
-0.0401624
-0.034133
-0.0288726
-0.0230413
-0.0190906
-0.0126066
-0.0114302
-0.00188976
-0.00755786
0.0113331
-0.323678
-0.312416
-0.304342
-0.295596
-0.286616
-0.277992
-0.269309
-0.260466
-0.251472
-0.242308
-0.232967
-0.223454
-0.213787
-0.203994
-0.194108
-0.18417
-0.174221
-0.164304
-0.154461
-0.144733
-0.135158
-0.12577
-0.1166
-0.107673
-0.0990126
-0.0906346
-0.0825548
-0.0747785
-0.0673212
-0.0601653
-0.0533539
-0.0467971
-0.0406668
-0.0346176
-0.0292973
-0.0234836
-0.019418
-0.0130524
-0.0115961
-0.00244189
-0.00737461
0.0104724
-0.287445
-0.29783
-0.301746
-0.294936
-0.286537
-0.278299
-0.269825
-0.261071
-0.252102
-0.242934
-0.23357
-0.224025
-0.214325
-0.2045
-0.194586
-0.184624
-0.174656
-0.164725
-0.154874
-0.14514
-0.135563
-0.126176
-0.117007
-0.108084
-0.0994282
-0.0910553
-0.0829803
-0.0752095
-0.0677552
-0.0606054
-0.0537912
-0.0472451
-0.0410962
-0.0350771
-0.0296941
-0.0239746
-0.0197265
-0.0136368
-0.0116874
-0.00327283
-0.00694026
0.00923188
-0.281623
-0.287271
-0.293108
-0.287632
-0.280137
-0.272769
-0.265034
-0.256862
-0.248377
-0.239632
-0.230651
-0.221459
-0.212084
-0.202562
-0.192929
-0.183228
-0.173499
-0.163787
-0.154133
-0.144578
-0.13516
-0.125914
-0.116871
-0.108056
-0.0994945
-0.0912031
-0.0831975
-0.0754862
-0.0680808
-0.060974
-0.0541903
-0.0476782
-0.0415381
-0.035558
-0.0301436
-0.0245044
-0.020125
-0.0142548
-0.0119081
-0.00410487
-0.00666958
0.00785894
-0.276501
-0.278934
-0.284131
-0.279513
-0.272761
-0.266089
-0.259017
-0.251428
-0.243458
-0.235183
-0.226639
-0.217855
-0.208866
-0.199707
-0.190419
-0.181039
-0.171612
-0.162179
-0.152783
-0.143464
-0.13426
-0.125207
-0.116337
-0.107677
-0.0992513
-0.0910799
-0.0831791
-0.0755589
-0.0682314
-0.0611929
-0.054464
-0.0480044
-0.0418951
-0.0359639
-0.0305434
-0.0249787
-0.0205098
-0.0148183
-0.0121616
-0.00485586
-0.00650834
0.00656417
-0.271194
-0.271129
-0.275261
-0.271293
-0.265187
-0.259084
-0.252598
-0.245571
-0.23812
-0.23033
-0.22224
-0.213885
-0.205302
-0.196528
-0.187603
-0.178566
-0.16946
-0.160327
-0.151208
-0.142144
-0.133174
-0.124333
-0.115654
-0.107165
-0.0988921
-0.0908558
-0.0830736
-0.0755574
-0.0683195
-0.0613594
-0.0546948
-0.0482951
-0.0422248
-0.0363464
-0.0309283
-0.0254365
-0.0208905
-0.0153666
-0.0124223
-0.00558909
-0.00636957
0.00529813
-0.264764
-0.263077
-0.26596
-0.26243
-0.256922
-0.251355
-0.245439
-0.23899
-0.232093
-0.224829
-0.217241
-0.209362
-0.201231
-0.192887
-0.184367
-0.175712
-0.166965
-0.158165
-0.149357
-0.140578
-0.13187
-0.123266
-0.114802
-0.106507
-0.0984062
-0.0905228
-0.0828752
-0.075477
-0.0683413
-0.0614704
-0.0548799
-0.0485475
-0.0425243
-0.0367024
-0.0312951
-0.0258742
-0.0212636
-0.0158954
-0.0126868
-0.00629864
-0.00625146
0.00407027
-0.25667
-0.254234
-0.255903
-0.252705
-0.2478
-0.242778
-0.237434
-0.231581
-0.225273
-0.218578
-0.211538
-0.204184
-0.196554
-0.188686
-0.180618
-0.17239
-0.164043
-0.155618
-0.147158
-0.138701
-0.130287
-0.121953
-0.113733
-0.105657
-0.0977528
-0.090044
-0.0825507
-0.0752881
-0.0682701
-0.061502
-0.0549979
-0.0487426
-0.0427766
-0.0370168
-0.0316304
-0.0262796
-0.0216192
-0.0163938
-0.0129505
-0.00697155
-0.00616032
0.00289927
-0.246821
-0.2443
-0.244953
-0.242073
-0.237804
-0.233358
-0.2286
-0.223364
-0.217672
-0.211582
-0.205129
-0.198342
-0.191256
-0.183907
-0.176334
-0.168574
-0.160668
-0.152657
-0.144582
-0.136483
-0.128398
-0.120364
-0.112418
-0.104589
-0.096907
-0.0893963
-0.0820784
-0.0749704
-0.0680873
-0.061437
-0.055033
-0.0488661
-0.0429684
-0.0372777
-0.0319231
-0.0266431
-0.0219484
-0.0168543
-0.0132069
-0.00760025
-0.00609577
0.00179974
-0.235272
-0.233164
-0.233082
-0.230557
-0.226964
-0.223134
-0.218983
-0.214378
-0.209328
-0.20387
-0.198035
-0.191848
-0.185343
-0.178551
-0.17151
-0.164256
-0.156829
-0.149269
-0.141614
-0.133906
-0.126183
-0.118482
-0.110838
-0.103285
-0.0958505
-0.0885617
-0.0814412
-0.0745077
-0.0677777
-0.0612613
-0.0549719
-0.0489057
-0.0430885
-0.037475
-0.0321637
-0.0269566
-0.0222429
-0.0172704
-0.0134492
-0.00817909
-0.00605508
0.000783586
-0.22225
-0.220879
-0.220365
-0.218253
-0.215363
-0.212185
-0.208661
-0.2047
-0.200303
-0.195496
-0.1903
-0.184739
-0.17884
-0.172635
-0.166157
-0.159441
-0.152525
-0.145446
-0.138245
-0.13096
-0.12363
-0.116291
-0.10898
-0.101728
-0.0945674
-0.0875246
-0.0806237
-0.0738853
-0.0673271
-0.0609614
-0.0548022
-0.0488498
-0.0431259
-0.037599
-0.0323427
-0.0272123
-0.0224947
-0.0176363
-0.0136712
-0.00870295
-0.00603514
-0.000139165
-0.208114
-0.207637
-0.206974
-0.205326
-0.203147
-0.200639
-0.197753
-0.194439
-0.190699
-0.186546
-0.181998
-0.177075
-0.171799
-0.166198
-0.160304
-0.154149
-0.147769
-0.1412
-0.134479
-0.127645
-0.120734
-0.113785
-0.106832
-0.0999085
-0.0930459
-0.0862725
-0.0796134
-0.0730906
-0.0667231
-0.0605255
-0.0545124
-0.048688
-0.0430706
-0.0376405
-0.0324516
-0.0274028
-0.0226965
-0.0179465
-0.013867
-0.00916742
-0.00603248
-0.000960768
-0.19329
-0.193723
-0.193139
-0.191991
-0.190505
-0.188661
-0.186408
-0.183733
-0.180638
-0.177132
-0.173228
-0.168941
-0.164291
-0.159302
-0.154003
-0.148423
-0.142595
-0.136553
-0.130332
-0.12397
-0.117502
-0.110965
-0.104394
-0.097822
-0.0912804
-0.0847982
-0.0784019
-0.0721145
-0.0659566
-0.0599443
-0.0540934
-0.0484113
-0.0429143
-0.0375921
-0.032483
-0.027522
-0.0228421
-0.0181967
-0.0140313
-0.00956916
-0.00604317
-0.00167627
-0.178211
-0.179469
-0.179123
-0.178484
-0.177647
-0.176436
-0.174796
-0.172734
-0.170262
-0.167383
-0.164105
-0.16044
-0.156407
-0.152026
-0.14732
-0.142318
-0.137048
-0.131543
-0.125836
-0.11996
-0.113952
-0.107845
-0.101674
-0.0954727
-0.0892716
-0.0831003
-0.0769859
-0.0709526
-0.0650218
-0.0592117
-0.0535388
-0.0480134
-0.0426505
-0.0374476