/*--------------------------------*- C++ -*----------------------------------*\
  =========                 |
  \\      /  F ield         | OpenFOAM: The Open Source CFD Toolbox
   \\    /   O peration     | Website:  https://openfoam.org
    \\  /    A nd           | Version:  7
     \\/     M anipulation  |
\*---------------------------------------------------------------------------*/
FoamFile
{
    version     2.0;
    format      ascii;
    class       surfaceScalarField;
    location    "10";
    object      phi;
}
// * * * * * * * * * * * * * * * * * * * * * * * * * * * * * * * * * * * * * //

dimensions      [0 3 -1 0 0 0 0];

internalField   nonuniform List<scalar> 
25237
(
-4.248e-06
4.23578e-06
1.22155e-08
-1.46156e-05
1.03329e-05
3.4655e-08
-2.95828e-05
1.49106e-05
5.6707e-08
-4.7678e-05
1.80171e-05
7.80657e-08
-6.75157e-05
1.97391e-05
9.85678e-08
-8.78618e-05
2.0228e-05
1.18225e-07
-0.000107717
1.97176e-05
1.37239e-07
-0.000126432
1.85595e-05
1.55984e-07
-0.000143769
1.71615e-05
1.74921e-07
1.60367e-05
1.94528e-07
-0.00016
-4.17134e-06
8.40712e-06
-1.43178e-05
2.04794e-05
-2.89078e-05
2.95006e-05
-4.64517e-05
3.5561e-05
-6.55389e-05
3.88262e-05
-8.49021e-05
3.95912e-05
-0.000103501
3.83162e-05
-0.000120642
3.57004e-05
-0.000136046
3.25657e-05
2.99371e-05
-0.000149946
-4.01916e-06
1.24263e-05
-1.37259e-05
3.01861e-05
-2.75654e-05
4.33401e-05
-4.4012e-05
5.20076e-05
-6.16051e-05
5.64193e-05
-7.90112e-05
5.69974e-05
-9.51076e-05
5.44126e-05
-0.000109111
4.97038e-05
-0.000120663
4.41175e-05
3.91896e-05
-0.000129915
-3.79371e-06
1.622e-05
-1.28474e-05
3.92399e-05
-2.55709e-05
5.60636e-05
-4.03851e-05
6.68218e-05
-5.57551e-05
7.17892e-05
-7.02486e-05
7.1491e-05
-8.26198e-05
6.67838e-05
-9.19487e-05
5.90327e-05
-9.77557e-05
4.99245e-05
4.15064e-05
-0.000100073
-3.49813e-06
1.97181e-05
-1.16927e-05
4.74344e-05
-2.2946e-05
6.73168e-05
-3.56083e-05
7.94841e-05
-4.80468e-05
8.42278e-05
-5.86992e-05
8.21433e-05
-6.61555e-05
7.42401e-05
-6.93107e-05
6.2188e-05
-6.75283e-05
4.81421e-05
3.46379e-05
-6.06598e-05
-3.13619e-06
2.28543e-05
-1.02744e-05
5.45726e-05
-1.97168e-05
7.67593e-05
-2.97269e-05
8.94942e-05
-3.8552e-05
9.30529e-05
-4.44691e-05
8.80605e-05
-4.58638e-05
7.56347e-05
-4.13884e-05
5.77126e-05
-3.02071e-05
3.69608e-05
1.67551e-05
-1.23243e-05
-2.71202e-06
2.55663e-05
-8.60621e-06
6.04668e-05
-1.59124e-05
8.40655e-05
-2.27917e-05
9.63735e-05
-2.73513e-05
9.76125e-05
-2.76797e-05
8.83889e-05
-2.19198e-05
6.98749e-05
-8.428e-06
4.42208e-05
1.40839e-05
1.44488e-05
-1.45876e-05
4.54267e-05
-2.22973e-06
2.77961e-05
-6.70225e-06
6.49393e-05
-1.15626e-05
8.89258e-05
-1.48552e-05
9.96661e-05
-1.45292e-05
9.72865e-05
-8.46013e-06
8.23198e-05
5.48833e-06
5.59264e-05
2.92927e-05
2.04164e-05
6.44463e-05
-2.07047e-05
-6.16451e-05
0.000111504
-1.69307e-06
2.94891e-05
-4.57559e-06
6.78218e-05
-6.6955e-06
9.10457e-05
-5.96758e-06
9.89382e-05
-1.66703e-07
9.14856e-05
1.30613e-05
6.90918e-05
3.61667e-05
3.2821e-05
7.15154e-05
-1.49323e-05
0.000121026
-7.02158e-05
-0.000126155
0.000185537
-1.10517e-06
3.05943e-05
-2.23746e-06
6.89541e-05
-1.33585e-06
9.01441e-05
3.82561e-06
9.37768e-05
1.56571e-05
7.96541e-05
3.67643e-05
4.79845e-05
6.99299e-05
-3.44609e-07
0.000117962
-6.29646e-05
0.000183288
-0.000135541
-0.000209972
0.000267105
-4.68481e-07
3.10628e-05
3.03948e-07
6.81817e-05
4.49589e-06
8.59522e-05
1.44872e-05
8.37855e-05
3.28826e-05
6.12588e-05
6.25446e-05
1.83225e-05
0.000106606
-4.44064e-05
0.000168357
-0.000124715
0.000250816
-0.000218
-0.000314863
0.000355707
2.16885e-07
3.08459e-05
3.04029e-06
6.53583e-05
1.07849e-05
7.82075e-05
2.59888e-05
6.85816e-05
5.14589e-05
3.57886e-05
9.0318e-05
-2.05365e-05
0.000146051
-0.000100139
0.000222449
-0.000201114
0.00032322
-0.000318771
-0.000442265
0.000450622
9.48171e-07
2.98977e-05
5.97027e-06
6.03362e-05
1.7521e-05
6.66568e-05
3.83099e-05
4.77927e-05
7.13515e-05
2.74708e-06
0.000120025
-6.92097e-05
0.000188152
-0.000168267
0.00028003
-0.000292992
0.000400132
-0.000438872
-0.000593717
0.000551583
1.72726e-06
2.81705e-05
9.09033e-06
5.29731e-05
2.46961e-05
5.1051e-05
5.14353e-05
2.10535e-05
9.25359e-05
-3.83535e-05
0.000151627
-0.000128301
0.000232839
-0.000249479
0.000340935
-0.000401088
0.000481197
-0.000579134
-0.000770346
0.000657826
2.55382e-06
2.56166e-05
1.23978e-05
4.31292e-05
3.23012e-05
3.11476e-05
6.53482e-05
-1.19935e-05
0.000114989
-8.79947e-05
0.000185098
-0.00019841
0.000280074
-0.000344455
0.000405066
-0.000526079
0.000566114
-0.000740182
-0.000972914
0.000768682
3.42742e-06
2.21892e-05
1.58872e-05
3.06694e-05
4.03212e-05
6.71365e-06
8.00212e-05
-5.16936e-05
0.000138676
-0.000146649
0.000220407
-0.00028014
0.000329843
-0.000453891
0.000472404
-0.000668641
0.000654702
-0.00092248
-0.00120171
0.000883503
4.34635e-06
1.78429e-05
1.95485e-05
1.54672e-05
4.87294e-05
-2.24673e-05
9.54049e-05
-9.8369e-05
0.000163524
-0.000214768
0.000257477
-0.000374094
0.000382112
-0.000578526
0.000542998
-0.000829528
0.000746947
-0.00112643
-0.00145651
0.00100175
5.30697e-06
1.25359e-05
2.33642e-05
-2.59e-06
5.74816e-05
-5.65847e-05
0.000111414
-0.000152301
0.000189399
-0.000292753
0.000296149
-0.000480843
0.000436784
-0.000719161
0.000616966
-0.00100971
0.000843033
-0.0013525
-0.00173679
0.00112331
6.30328e-06
6.23262e-06
2.7308e-05
-2.35947e-05
6.65115e-05
-9.57883e-05
0.000127916
-0.000213706
0.000216077
-0.000380914
0.000336107
-0.000600873
0.000493613
-0.000876668
0.000694617
-0.00121071
0.000943941
-0.00160182
-0.00204236
0.00124951
7.32706e-06
-1.09443e-06
3.13453e-05
-4.76129e-05
7.57302e-05
-0.000140173
0.000144723
-0.000282698
0.000243201
-0.000479392
0.000376755
-0.000734427
0.00055182
-0.00105173
0.000775925
-0.00143482
0.0010548
-0.0018807
-0.00237028
0.00138273
8.36854e-06
-9.46298e-06
3.54354e-05
-7.46798e-05
8.50314e-05
-0.000189769
0.0001616
-0.000359267
0.000270288
-0.000588081
0.000417104
-0.000881243
0.000609308
-0.00124394
0.000856578
-0.00168209
0.00117828
-0.0022024
-0.00283522
0.00164322
9.41783e-06
-1.88808e-05
3.95365e-05
-0.000104799
9.4305e-05
-0.000244538
0.000178302
-0.000443264
0.000296814
-0.000706593
0.000455983
-0.00104041
0.000663193
-0.00145115
0.000928023
-0.00194692
0.00126596
-0.00254034
-0.0032657
0.00169644
1.04662e-05
-2.9347e-05
4.36109e-05
-0.000137943
0.000103453
-0.00030438
0.000194619
-0.00053443
0.000322366
-0.00083434
0.00049263
-0.00121068
0.000712141
-0.00167066
0.000988512
-0.00222329
0.00133045
-0.00288228
-0.00367675
0.0017415
1.1507e-05
-4.0854e-05
4.76282e-05
-0.000174064
0.000112397
-0.000369149
0.000210393
-0.000632426
0.000346686
-0.000970633
0.000526727
-0.00139072
0.000756146
-0.00190008
0.00104015
-0.0025073
0.0013821
-0.00322423
-0.0040726
0.00177795
1.25356e-05
-5.33896e-05
5.1565e-05
-0.000213094
0.000121079
-0.000438662
0.000225518
-0.000736865
0.000369625
-0.00111474
0.00055818
-0.00157927
0.00079553
-0.00213743
0.0010846
-0.00279636
0.00142492
-0.00356456
-0.00445598
0.00180831
1.35487e-05
-6.69382e-05
5.54028e-05
-0.000254948
0.00012945
-0.000512709
0.000239909
-0.000847324
0.000391082
-0.00126591
0.000586954
-0.00177514
0.000830536
-0.00238101
0.00112271
-0.00308853
0.00146028
-0.00390213
-0.00482851
0.00183281
1.45433e-05
-8.14816e-05
5.91248e-05
-0.000299529
0.000137469
-0.000591054
0.000253491
-0.000963346
0.000410961
-0.00142338
0.000612987
-0.00197717
0.000861247
-0.00262927
0.00115482
-0.00338211
0.00148851
-0.00423582
-0.00519058
0.00185058
1.55162e-05
-9.69978e-05
6.27122e-05
-0.000346725
0.000145089
-0.00067343
0.000266183
-0.00108444
0.000429149
-0.00158635
0.000636161
-0.00218418
0.00088759
-0.0028807
0.00118092
-0.00367544
0.0015094
-0.0045643
-0.00554168
0.0018605
1.64626e-05
-0.00011346
6.61427e-05
-0.000396406
0.000152255
-0.000759543
0.000277886
-0.00121007
0.000445502
-0.00175397
0.000656295
-0.00239497
0.000909358
-0.00313376
0.00120074
-0.00396682
0.00152247
-0.00488602
-0.00588073
0.00186151
1.7376e-05
-0.000130836
6.93888e-05
-0.000448418
0.000158904
-0.000849058
0.000288485
-0.00133965
0.000459846
-0.00192533
0.000673155
-0.00260828
0.000926263
-0.00338687
0.00121392
-0.00425448
0.00152715
-0.00519925
-0.00620629
0.00185271
1.82482e-05
-0.000149085
7.24172e-05
-0.000502587
0.000164959
-0.0009416
0.000297849
-0.00147254
0.000471982
-0.00209946
0.000686478
-0.00282278
0.000937976
-0.00363837
0.00122005
-0.00453656
0.00152295
-0.00550215
-0.00651676
0.00183342
1.90693e-05
-0.000168154
7.51901e-05
-0.000558708
0.000170338
-0.00103675
0.000305833
-0.00160804
0.000481699
-0.00227532
0.000695988
-0.00303707
0.000944172
-0.00388655
0.00121879
-0.00481117
0.00150948
-0.00579284
-0.0068105
0.00180322
1.98278e-05
-0.000187982
7.76654e-05
-0.000616546
0.000174951
-0.00113403
0.000312287
-0.00174537
0.000488784
-0.00245182
0.00070142
-0.00324971
0.000944559
-0.00412969
0.00120983
-0.00507645
0.0014865
-0.00606951
-0.00708594
0.00176195
2.05114e-05
-0.000208493
7.97988e-05
-0.000675833
0.000178705
-0.00123294
0.000317063
-0.00188373
0.000493035
-0.00262779
0.000702536
-0.00345921
0.000938906
-0.00436606
0.00119302
-0.00533056
0.00145395
-0.00633044
-0.00734168
0.00170969
2.11069e-05
-0.0002296
8.15452e-05
-0.000736271
0.00018151
-0.0013329
0.000320019
-0.00202224
0.000494268
-0.00280204
0.000699141
-0.00366408
0.000927052
-0.00459397
0.00116829
-0.00557181
0.00141193
-0.00657407
-0.0075765
0.00164674
2.16012e-05
-0.000251201
8.28601e-05
-0.00079753
0.000183278
-0.00143332
0.000321026
-0.00215999
0.000492329
-0.00297334
0.000691094
-0.00386284
0.000908925
-0.0048118
0.0011357
-0.00579858
0.00136068
-0.00679904
-0.00778941
0.00157359
2.19815e-05
-0.000273183
8.37014e-05
-0.00085925
0.000183931
-0.00153355
0.000319974
-0.00229603
0.000487101
-0.00314047
0.000678312
-0.00405405
0.000884537
-0.00501803
0.00109543
-0.00600947
0.0013006
-0.00700422
-0.00797966
0.00149086
2.22355e-05
-0.000295418
8.40307e-05
-0.000921045
0.000183401
-0.00163292
0.000316775
-0.0024294
0.000478506
-0.0033022
0.000660776
-0.00423632
0.000853989
-0.00521124
0.00104775
-0.00620323
0.00123221
-0.00718868
-0.00814675
0.00139929
2.23519e-05
-0.00031777
8.38142e-05
-0.000982508
0.000181632
-0.00173074
0.000311368
-0.00255914
0.000466511
-0.00345735
0.000638531
-0.00440834
0.000817463
-0.00539017
0.000993034
-0.0063788
0.00115608
-0.00735173
-0.00829039
0.00129972
2.2321e-05
-0.000340091
8.30241e-05
-0.00104321
0.000178582
-0.0018263
0.000303718
-0.00268428
0.000451125
-0.00360475
0.000611683
-0.0045689
0.000775217
-0.00555371
0.000931742
-0.00653532
0.0010729
-0.00749289
-0.00841049
0.00119301
2.21344e-05
-0.000362226
8.16393e-05
-0.00110272
0.000174226
-0.00191889
0.00029382
-0.00280387
0.000432403
-0.00374334
0.000580396
-0.0047169
0.000727571
-0.00570088
0.000864383
-0.00667214
0.000983361
-0.00761187
-0.00850716
0.00108003
2.17855e-05
-0.000384011
7.96453e-05
-0.00116058
0.000168555
-0.0020078
0.000281696
-0.00291701
0.000410441
-0.00387208
0.000544887
-0.00485134
0.000674905
-0.0058309
0.000791517
-0.00678875
0.000888209
-0.00770856
-0.00858063
0.000961678
2.12697e-05
-0.000405281
7.70354e-05
-0.00121634
0.000161575
-0.00209233
0.000267399
-0.00302284
0.000385376
-0.00399006
0.000505418
-0.00497138
0.000617639
-0.00594312
0.000713732
-0.00688484
0.000788182
-0.00778301
-0.00863126
0.00083881
2.05843e-05
-0.000425865
7.38108e-05
-0.00126957
0.00015331
-0.00217183
0.000251005
-0.00312053
0.000357377
-0.00409643
0.000462292
-0.0050763
0.000556227
-0.00603706
0.000631636
-0.00696025
0.000684013
-0.00783538
-0.0086595
0.000712252
1.9729e-05
-0.000445594
6.99801e-05
-0.00131982
0.0001438
-0.00224565
0.000232617
-0.00320935
0.000326649
-0.00419046
0.000415841
-0.00516549
0.000491149
-0.00611237
0.000545843
-0.00701495
0.000576421
-0.00786596
-0.00866586
0.000582785
1.87054e-05
-0.000464299
6.55597e-05
-0.00136667
0.0001331
-0.00231319
0.000212362
-0.00328861
0.00029342
-0.00427152
0.000366426
-0.0052385
0.000422899
-0.00616884
0.000456964
-0.00704901
0.000466096
-0.00787509
-0.0086509
0.000451135
1.75171e-05
-0.000481817
6.05728e-05
-0.00140973
0.000121278
-0.0023739
0.000190383
-0.00335772
0.000257944
-0.00433908
0.000314424
-0.00529498
0.000351981
-0.0062064
0.000365598
-0.00706263
0.000353694
-0.00786319
-0.00861518
0.000317974
1.61702e-05
-0.000497987
5.50499e-05
-0.00144861
0.000108415
-0.00242726
0.000166844
-0.00341615
0.00022049
-0.00439273
0.000260228
-0.00533471
0.000278902
-0.00622507
0.00027234
-0.00705607
0.000239823
-0.00783067
-0.00855924
0.000183887
1.46723e-05
-0.000512659
4.9027e-05
-0.00148296
9.46028e-05
-0.00247284
0.000141921
-0.00346346
0.000181342
-0.00443215
0.000204238
-0.00535761
0.000204172
-0.006225
0.000177802
-0.0070297
0.000125064
-0.00777794
-0.0084829
4.87199e-05
1.30329e-05
-0.000525692
4.25461e-05
-0.00151248
7.99425e-05
-0.00251024
0.000115798
-0.00349932
0.000140788
-0.00445714
0.000146851
-0.00536367
0.000128281
-0.00620643
8.25712e-05
-0.00698399
1.09012e-05
-0.00770627
-0.00838715
-8.48535e-05
1.12632e-05
-0.000536955
3.56531e-05
-0.00153687
6.45413e-05
-0.00253912
8.86691e-05
-0.00352345
9.91241e-05
-0.00446759
8.8463e-05
-0.00535301
5.17059e-05
-0.00616968
-1.29997e-05
-0.00691928
-0.000104322
-0.00761494
-0.00827379
-0.000217673
9.3759e-06
-0.000546331
2.83979e-05
-0.00155589
4.85117e-05
-0.00255924
6.07312e-05
-0.00353567
5.66429e-05
-0.00446351
2.94679e-05
-0.00532584
-2.50738e-05
-0.00611513
-0.000108218
-0.00683614
-0.000218087
-0.00750507
-0.00814226
-0.000349626
7.38469e-06
-0.000553716
2.0833e-05
-0.00156934
3.1969e-05
-0.00257037
3.21803e-05
-0.00353588
1.36357e-05
-0.00444496
-2.97582e-05
-0.00528244
-0.000101599
-0.00604329
-0.000202609
-0.00673513
-0.000330539
-0.00737714
-0.00799285
-0.000479944
5.30471e-06
-0.00055902
1.30124e-05
-0.00157704
1.5029e-05
-0.00257239
3.22164e-06
-0.00352407
-2.96285e-05
-0.00441211
-8.88557e-05
-0.00522322
-0.000177431
-0.00595472
-0.000295679
-0.00661688
-0.000441191
-0.00723163
-0.00782586
-0.000608183
3.15495e-06
-0.000562175
4.99054e-06
-0.00157888
-2.19128e-06
-0.00256521
-2.5994e-05
-0.00350027
-7.28834e-05
-0.00436522
-0.000147483
-0.00514862
-0.000252155
-0.00585005
-0.000386938
-0.0064821
-0.000549533
-0.00706904
-0.00764146
-0.000733929
9.32224e-07
-0.000563108
-3.18116e-06
-0.00157477
-1.95956e-05
-0.00254879
-5.5256e-05
-0.00346461
-0.000115883
-0.00430459
-0.000205334
-0.00505917
-0.000325388
-0.00572999
-0.000475911
-0.00633157
-0.000655034
-0.00688991
-0.00743969
-0.000856804
-1.35013e-06
-0.000561757
-1.14497e-05
-0.00156467
-3.70605e-05
-0.00252318
-8.44095e-05
-0.00341726
-0.000158409
-0.00423059
-0.000262135
-0.00495544
-0.000396792
-0.00559534
-0.000562146
-0.00616622
-0.000757145
-0.00669491
-0.00722038
-0.000976457
-3.6276e-06
-0.00055813
-1.97571e-05
-0.00154854
-5.4491e-05
-0.00248845
-0.000113302
-0.00335845
-0.000200266
-0.00414363
-0.000317658
-0.00483805
-0.000466085
-0.00544691
-0.000645238
-0.00598707
-0.000855239
-0.00648491
-0.00698335
-0.00109227
-5.93281e-06
-0.000552197
-2.80581e-05
-0.00152641
-7.17915e-05
-0.00244472
-0.000141796
-0.00328844
-0.000241283
-0.00404414
-0.00037172
-0.00470761
-0.000533069
-0.00528556
-0.000724849
-0.00579529
-0.000948319
-0.00626144
-0.00672796
-0.00120371
-8.24008e-06
-0.000543957
-3.63043e-05
-0.00149835
-8.88716e-05
-0.00239215
-0.000169761
-0.00320755
-0.000281314
-0.00393259
-0.000424189
-0.00456474
-0.000597667
-0.00511208
-0.000800809
-0.00559214
-0.00103576
-0.00602649
-0.00645146
-0.00131225
-1.05336e-05
-0.000533423
-4.44485e-05
-0.00146443
-0.000105645
-0.00233095
-0.000197078
-0.00311612
-0.000320226
-0.00380944
-0.000474976
-0.00440999
-0.00065998
-0.00492708
-0.000873381
-0.00537874
-0.001112
-0.00578787
-0.00618133
-0.00138213
-1.27991e-05
-0.000520624
-5.24456e-05
-0.00142479
-0.00012203
-0.00226137
-0.00022363
-0.00301452
-0.000357883
-0.00367519
-0.000523965
-0.0042439
-0.000719992
-0.00473105
-0.000943691
-0.00515504
-0.00119263
-0.00553893
-0.00590531
-0.00146865
-1.50228e-05
-0.000505601
-6.02524e-05
-0.00137956
-0.000137946
-0.00218367
-0.000249304
-0.00290316
-0.000394142
-0.00353035
-0.000570968
-0.00406708
-0.000777426
-0.00452459
-0.00101095
-0.00492152
-0.00126925
-0.00528063
-0.00562269
-0.00155187
-1.71917e-05
-0.00048841
-6.78283e-05
-0.00132892
-0.000153321
-0.00209818
-0.000273997
-0.00278249
-0.000428873
-0.00337547
-0.000615824
-0.00388013
-0.000832049
-0.00430837
-0.00107469
-0.00467888
-0.00134137
-0.00501395
-0.0053332
-0.00163086
-1.92935e-05
-0.000469116
-7.51359e-05
-0.00127308
-0.000168089
-0.00200523
-0.000297617
-0.00265296
-0.000461968
-0.00321112
-0.000658414
-0.00368368
-0.000883748
-0.00408303
-0.00113487
-0.00442776
-0.00140927
-0.00473955
-0.00503704
-0.00170542
-2.13171e-05
-0.000447799
-8.21412e-05
-0.00121225
-0.00018219
-0.00190518
-0.000320087
-0.00251506
-0.00049334
-0.00303787
-0.000698659
-0.00347836
-0.000932469
-0.00384922
-0.00119147
-0.00416877
-0.00147309
-0.00445792
-0.00473443
-0.0017757
-2.32521e-05
-0.000424547
-8.88131e-05
-0.00114669
-0.000195572
-0.00179842
-0.000341337
-0.0023693
-0.000522917
-0.00285629
-0.000736497
-0.00326478
-0.000978177
-0.00360754
-0.0012445
-0.00390244
-0.00153291
-0.00416952
-0.00442559
-0.00184174
-2.5089e-05
-0.000399458
-9.5124e-05
-0.00107666
-0.000208188
-0.00168535
-0.00036131
-0.00221618
-0.000550637
-0.00266696
-0.000771877
-0.00304354
-0.00102085
-0.00335857
-0.00129398
-0.0036293
-0.00158873
-0.00387477
-0.00411077
-0.00190356
-2.68194e-05
-0.000372639
-0.000101049
-0.00100243
-0.000219997
-0.00156641
-0.000379952
-0.00205622
-0.000576449
-0.00247047
-0.000804757
-0.00281523
-0.00106045
-0.00310288
-0.00133989
-0.00334986
-0.00164058
-0.00357408
-0.00379025
-0.0019611
-2.84352e-05
-0.000344203
-0.000106565
-0.000924299
-0.000230961
-0.00144201
-0.000397219
-0.00188996
-0.000600305
-0.00226738
-0.000835096
-0.00258044
-0.00109695
-0.00284102
-0.0013822
-0.00306462
-0.00168841
-0.00326787
-0.00346434
-0.00201432
-2.99294e-05
-0.000314274
-0.000111651
-0.000842577
-0.000241048
-0.00131261
-0.00041307
-0.00171794
-0.000622164
-0.00205829
-0.000862857
-0.00233975
-0.00113034
-0.00257355
-0.00142089
-0.00277406
-0.00173219
-0.00295657
-0.00313342
-0.00206312
-3.12954e-05
-0.000282979
-0.000116289
-0.000757583
-0.000250226
-0.00117868
-0.000427465
-0.0015407
-0.000641986
-0.00184377
-0.000888005
-0.00209373
-0.00116056
-0.00230099
-0.00145593
-0.00247869
-0.00177187
-0.00264062
-0.00279788
-0.00210741
-3.25273e-05
-0.000250451
-0.000120463
-0.000669648
-0.000258469
-0.00104067
-0.000440373
-0.0013588
-0.000659735
-0.0016244
-0.000910503
-0.00184296
-0.00118759
-0.00202391
-0.00148727
-0.00217901
-0.00180739
-0.0023205
-0.00245817
-0.00214711
-3.36195e-05
-0.000216832
-0.000124156
-0.000579111
-0.000265751
-0.000899076
-0.000451761
-0.00117279
-0.00067538
-0.00140078
-0.000930321
-0.00158802
-0.00121139
-0.00174284
-0.00151488
-0.00187552
-0.00183869
-0.00199669
-0.00211474
-0.00218212
-3.45674e-05
-0.000182264
-0.000127355
-0.000486323
-0.000272051
-0.000754381
-0.000461602
-0.000983237
-0.000688888
-0.0011735
-0.000947425
-0.00132948
-0.00123194
-0.00145833
-0.00153871
-0.00156874
-0.00186574
-0.00166966
-0.00176811
-0.00221237
-3.53665e-05
-0.000146898
-0.000130049
-0.000391641
-0.000277348
-0.000607081
-0.00046987
-0.000790715
-0.000700233
-0.000943136
-0.000961789
-0.00106793
-0.0012492
-0.00117092
-0.00155875
-0.00125919
-0.00188848
-0.00133994
-0.00141877
-0.00223781
-3.60131e-05
-0.000110885
-0.000132225
-0.000295429
-0.000281626
-0.00045768
-0.000476544
-0.000595798
-0.000709388
-0.000710292
-0.000973385
-0.000803929
-0.00126314
-0.000881165
-0.00157496
-0.000947372
-0.0019069
-0.001008
-0.00106727
-0.00225841
-3.65041e-05
-7.43807e-05
-0.000133876
-0.000198057
-0.000284869
-0.000306687
-0.000481602
-0.000399065
-0.00071633
-0.000475564
-0.000982187
-0.000538072
-0.00127375
-0.000589606
-0.00158732
-0.000633797
-0.00192099
-0.000674332
-0.000714071
-0.00227418
-3.68368e-05
-3.75439e-05
-0.000134994
-9.98993e-05
-0.000287065
-0.000154616
-0.000485029
-0.000201101
-0.000721038
-0.000239554
-0.00098817
-0.00027094
-0.00128098
-0.000296793
-0.00159581
-0.000318971
-0.00193074
-0.000339398
-0.000359652
-0.00228516
-3.70092e-05
-5.34652e-07
-0.000135573
-1.33523e-06
-0.000288204
-1.98609e-06
-0.000486809
-2.49517e-06
-0.000723494
-2.87013e-06
-0.000991309
-3.12526e-06
-0.00128481
-3.28711e-06
-0.00160038
-3.40518e-06
-0.0019362
-3.57859e-06
-3.98239e-06
-0.00229187
-3.70203e-05
3.64857e-05
-0.00013561
9.72548e-05
-0.000288278
0.000150682
-0.000486934
0.00019616
-0.000723681
0.000233877
-0.000991578
0.000264772
-0.0012852
0.000290335
-0.00160095
0.00031234
-0.0019371
0.000332573
0.000352421
-0.0022935
-3.68695e-05
7.33551e-05
-0.000135103
0.000195489
-0.000287286
0.000302865
-0.000485396
0.000394269
-0.000721589
0.00047007
-0.00098896
0.000532143
-0.0012821
0.000583476
-0.00159742
0.000627657
-0.00193317
0.000668325
0.000708348
-0.0022891
-3.6557e-05
0.000109912
-0.000134053
0.000292985
-0.000285228
0.000454039
-0.000482195
0.000591237
-0.000717217
0.000705092
-0.000983449
0.000798375
-0.00127551
0.000875534
-0.00158978
0.000941931
-0.00192448
0.00100303
0.0010631
-0.00227924
-3.60842e-05
0.000145996
-0.000132463
0.000389364
-0.000282108
0.000603684
-0.000477337
0.000786466
-0.000710568
0.000938322
-0.000975048
0.00106285
-0.00126542
0.00116591
-0.00157806
0.00125457
-0.0019111
0.00133606
0.00141607
-0.00226406
-3.54528e-05
0.000181449
-0.000130338
0.00048425
-0.000277934
0.00075128
-0.000470833
0.000979366
-0.000701656
0.00116915
-0.000963773
0.00132497
-0.00125187
0.00145401
-0.00156229
0.00156499
-0.0018931
0.00166687
0.00176669
-0.00224372
-3.46658e-05
0.000216115
-0.000127687
0.000577271
-0.000272721
0.000896314
-0.0004627
0.00116934
-0.000690501
0.00139695
-0.00094965
0.00158412
-0.00123489
0.00173925
-0.00154253
0.00187263
-0.00187056
0.0019949
0.00211443
-0.0022183
-3.37267e-05
0.000249842
-0.000124518
0.000668062
-0.000266483
0.00103828
-0.000452958
0.00135582
-0.000677128
0.00162112
-0.000932708
0.0018397
-0.00121451
0.00202105
-0.00151884
0.00217695
-0.00184357
0.00231963
0.00245879
-0.00218793
-3.26398e-05
0.000282481
-0.000120845
0.000756267
-0.000259241
0.00117668
-0.000441633
0.00153821
-0.000661567
0.00184105
-0.000912983
0.00209112
-0.00119079
0.00229886
-0.00149126
0.00247742
-0.0018122
0.00264058
0.0027993
-0.00215271
-3.14102e-05
0.000313892
-0.000116681
0.000841537
-0.000251019
0.00131101
-0.000428757
0.00171595
-0.000643854
0.00205615
-0.000890515
0.00233778
-0.00116376
0.00257211
-0.00145987
0.00277353
-0.00177654
0.00295725
0.00313552
-0.00211276
-3.00436e-05
0.000343935
-0.000112042
0.000923536
-0.000241843
0.00144081
-0.000414363
0.00188847
-0.000624028
0.00226581
-0.000865346
0.00257909
-0.00113348
0.00284025
-0.00142471
0.00306476
-0.00173667
0.00326921
0.00346703
-0.00206818
-2.85462e-05
0.000372481
-0.000106948
0.00100194
-0.000231741
0.00156561
-0.000398489
0.00205522
-0.00060213
0.00246945
-0.000837518
0.00281448
-0.0011
0.00310272
-0.00138585
0.00335062
-0.00169265
0.003576
0.00379345
-0.00201907
-2.69251e-05
0.000399407
-0.000101416
0.00107643
-0.000220748
0.00168494
-0.000381177
0.00221565
-0.000578205
0.00266648
-0.000807078
0.00304336
-0.00106334
0.00335899
-0.00134334
0.00363061
-0.00164455
0.00387721
0.00411445
-0.00196555
-2.51878e-05
0.000424594
-9.54705e-05
0.00114671
-0.000208899
0.00179837
-0.00036247
0.00236922
-0.000552301
0.00285631
-0.000774068
0.00326512
-0.00102356
0.00360848
-0.0012972
0.00390425
-0.00159242
0.00417243
0.00442971
-0.00190768
-2.33426e-05
0.000447937
-8.91338e-05
0.0012125
-0.000196234
0.00190547
-0.00034242
0.0025154
-0.000524469
0.00303836
-0.000738536
0.00347919
-0.000980694
0.00385064
-0.00124747
0.00417103
-0.00153629
0.00446125
0.00473895
-0.00184553
-2.13985e-05
0.000469336
-8.24328e-05
0.00127354
-0.000182796
0.00200583
-0.000321082
0.00265369
-0.000494768
0.00321205
-0.000700531
0.00368495
-0.000934768
0.00408488
-0.00119416
0.00443042
-0.00147615
0.00474324
0.00504193
-0.00177912
-1.93653e-05
0.000488701
-7.53965e-05
0.00132957
-0.000168635
0.00209907
-0.000298518
0.00278357
-0.000463262
0.00337679
-0.000660108
0.0038818
-0.000885819
0.00431059
-0.00113727
0.00468188
-0.00141198
0.00501794
0.0053384
-0.00170846
-1.72535e-05
0.000505954
-6.80566e-05
0.00138037
-0.000153804
0.00218482
-0.000274798
0.00290457
-0.000430028
0.00353202
-0.000617334
0.0040691
-0.000833886
0.00452714
-0.00107681
0.0049248
-0.00134372
0.00528485
0.00562815
-0.00163346
-1.50749e-05
0.000521029
-6.04484e-05
0.00142575
-0.000138366
0.00226274
-0.000250006
0.00301621
-0.000395158
0.00367717
-0.000572296
0.00424624
-0.000779032
0.00473388
-0.00101277
0.00515854
-0.00127123
0.0055433
0.00591091
-0.00155399
-1.28416e-05
0.000533871
-5.26098e-05
0.00146551
-0.000122387
0.00233251
-0.000224233
0.00311805
-0.000358761
0.0038117
-0.000525115
0.0044126
-0.000721376
0.00493014
-0.000945239
0.0053824
-0.00119424
0.00579231
0.00618692
-0.00147026
-1.0567e-05
0.000544438
-4.45822e-05
0.00149953
-0.000105942
0.00239387
-0.000197586
0.0032097
-0.000320973
0.00393509
-0.000475958
0.00456758
-0.000661158
0.00511534
-0.000874672
0.00559592
-0.00111329
0.00603092
0.00645655
-0.00138292
-8.2651e-06
0.000552703
-3.64091e-05
0.00152767
-8.91105e-05
0.00244657
-0.000170178
0.00329077
-0.000281936
0.00404684
-0.000425013
0.00471066
-0.000598659
0.00528898
-0.000801895
0.00579915
-0.0010368
0.00626583
0.00673278
-0.00131304
-5.95004e-06
0.000558653
-2.81358e-05
0.00154986
-7.1976e-05
0.00249041
-0.000142127
0.00336092
-0.000241786
0.0041465
-0.000372395
0.00484127
-0.000533887
0.00545048
-0.000725745
0.00599101
-0.00094917
0.00648926
0.00698788
-0.00120427
-3.63771e-06
0.000562291
-1.98097e-05
0.00156603
-5.46248e-05
0.00252523
-0.000113553
0.00341985
-0.000200657
0.00423361
-0.000318192
0.0049588
-0.000466735
0.00559902
-0.000645942
0.00617022
-0.000855872
0.00669919
0.00722464
-0.00109263
-1.35385e-06
0.000563645
-1.14795e-05
0.00157616
-3.71473e-05
0.0025509
-8.45849e-05
0.00346728
-0.000158695
0.00430772
-0.000262535
0.00506264
-0.000397282
0.00573377
-0.000562665
0.0063356
-0.000757578
0.0068941
0.0074437
-0.000976643
9.34254e-07
0.00056271
-3.19013e-06
0.00158028
-1.96394e-05
0.00256735
-5.53615e-05
0.00350301
-0.000116071
0.00436843
-0.000205608
0.00515218
-0.000325728
0.00585389
-0.00047626
0.00648613
-0.000655288
0.00707313
0.00764525
-0.000856839
3.16201e-06
0.000559548
5.0002e-06
0.00157844
-2.19588e-06
0.00257454
-2.60353e-05
0.00352684
-7.29806e-05
0.00441537
-0.000147641
0.00522684
-0.000252355
0.0059586
-0.000387131
0.00662091
-0.000549631
0.00723563
0.00782946
-0.000733839
5.31614e-06
0.000554232
1.30386e-05
0.00157072
1.50596e-05
0.00257252
3.23861e-06
0.00353867
-2.96422e-05
0.00444825
-8.89063e-05
0.0052861
-0.000177504
0.0060472
-0.00029573
0.00673914
-0.000441153
0.00738105
0.0079963
-0.000607988
7.39986e-06
0.000546832
2.08736e-05
0.00155725
3.20308e-05
0.00256136
3.22499e-05
0.00353845
1.36976e-05
0.0044668
-2.97109e-05
0.00532951
-0.000101556
0.00611904
-0.000202536
0.00684012
-0.000330383
0.0075089
0.00814557
-0.000479661
9.3942e-06
0.000537438
2.84509e-05
0.00153819
4.8601e-05
0.00254121
6.08476e-05
0.0035262
5.67729e-05
0.00447088
2.96035e-05
0.00535668
-2.49267e-05
0.00617357
-0.000108034
0.00692322
-0.000217828
0.00761869
0.00827701
-0.000349269
1.12841e-05
0.000526154
3.57166e-05
0.00151376
6.46543e-05
0.00251228
8.88265e-05
0.00350203
9.93146e-05
0.00446039
8.86776e-05
0.00536732
5.19456e-05
0.0062103
-1.27193e-05
0.00698789
-0.000103973
0.00770994
0.00839029
-0.000217252
1.30558e-05
0.000513098
4.26182e-05
0.00148419
8.00756e-05
0.00247482
0.000115991
0.00346611
0.000141032
0.00443535
0.000147135
0.00536121
0.000128602
0.00622884
8.29363e-05
0.00703355
1.13096e-05
0.00778157
0.00848598
-8.43812e-05
1.46967e-05
0.000498402
4.91062e-05
0.00144978
9.47526e-05
0.00242917
0.000142144
0.00341872
0.000181631
0.00439586
0.000204583
0.00533826
0.000204567
0.00622885
0.000178245
0.00705988
0.000125559
0.00783426
0.00856229
4.92576e-05
1.61957e-05
0.000482206
5.51343e-05
0.00141085
0.000108578
0.00237573
0.000167093
0.00336021
0.000220819
0.00434214
0.000260627
0.00529845
0.00027936
0.00621012
0.00027285
0.00706639
0.000240378
0.00786673
0.0086182
0.000184465
1.75433e-05
0.000464663
6.06611e-05
0.00136773
0.000121451
0.00231494
0.000190652
0.00329101
0.000258306
0.00427448
0.000314868
0.00524189
0.000352494
0.0061725
0.000366167
0.00705271
0.000354304
0.00787859
0.0086539
0.000318598
1.87318e-05
0.000445931
6.56504e-05
0.00132081
0.000133281
0.00224731
0.000212646
0.00321164
0.000293808
0.00419332
0.000366908
0.00516879
0.00042346
0.00611594
0.000457584
0.00701859
0.000466755
0.00786942
0.00866886
0.000451801
1.97554e-05
0.000426176
7.00722e-05
0.00127049
0.000143986
0.00217339
0.000232914
0.00312271
0.000327058
0.00409918
0.000416354
0.0050795
0.00049175
0.00604055
0.000546509
0.00696383
0.000577125
0.00783881
0.00866249
0.000583491
2.06104e-05
0.000405565
7.3903e-05
0.0012172
0.000153499
0.0020938
0.000251309
0.0030249
0.000357802
0.00399268
0.00046283
0.00497447
0.000556862
0.00594652
0.000632342
0.00688835
0.000684758
0.00778639
0.00863426
0.000712996
2.12951e-05
0.00038427
7.71268e-05
0.00116137
0.000161764
0.00200916
0.000267707
0.00291896
0.000385811
0.00387458
0.000505976
0.0048543
0.000618301
0.00583419
0.000714473
0.00679218
0.000788964
0.0077119
0.00858363
0.000839591
2.18102e-05
0.00036246
7.9735e-05
0.00110344
0.000168743
0.00192015
0.000282006
0.0028057
0.000410883
0.0037457
0.000545458
0.00471973
0.000675589
0.00570406
0.000792286
0.00667548
0.000889025
0.00761516
0.00851016
0.000962495
2.21582e-05
0.000340302
8.17267e-05
0.00104387
0.000174411
0.00182747
0.000294128
0.00268598
0.000432847
0.00360698
0.000580976
0.0045716
0.000728272
0.00555676
0.000865176
0.00653858
0.000984208
0.00749613
0.00841349
0.00108088
2.23437e-05
0.000317958
8.31086e-05
0.00098311
0.000178763
0.00173181
0.000304022
0.00256072
0.000451568
0.00345944
0.000612266
0.0044109
0.000775928
0.0053931
0.000932554
0.00638195
0.00107377
0.00735491
0.00829337
0.00119389
2.23734e-05
0.000295585
8.38952e-05
0.000921588
0.000181807
0.0016339
0.000311665
0.00243086