/*--------------------------------*- C++ -*----------------------------------*\
  =========                 |
  \\      /  F ield         | OpenFOAM: The Open Source CFD Toolbox
   \\    /   O peration     | Website:  https://openfoam.org
    \\  /    A nd           | Version:  7
     \\/     M anipulation  |
\*---------------------------------------------------------------------------*/
FoamFile
{
    version     2.0;
    format      ascii;
    class       volScalarField;
    location    "20";
    object      p;
}
// * * * * * * * * * * * * * * * * * * * * * * * * * * * * * * * * * * * * * //

dimensions      [0 2 -2 0 0 0 0];

internalField   nonuniform List<scalar> 
8330
(
-0.0769117
-0.0804092
-0.0811739
-0.0825653
-0.0837033
-0.0849667
-0.0862135
-0.0874302
-0.0885723
-0.0895658
-0.0904618
-0.0910176
-0.0917698
-0.0915573
-0.0770522
-0.0805212
-0.0812801
-0.0826629
-0.0837958
-0.0850549
-0.0862989
-0.0875133
-0.0886554
-0.0896448
-0.0905477
-0.0910779
-0.0918643
-0.0915202
-0.0773307
-0.0807433
-0.0814904
-0.0828558
-0.0839782
-0.0852285
-0.0864665
-0.0876758
-0.0888173
-0.0897973
-0.090715
-0.0911896
-0.0920513
-0.0914374
-0.0777429
-0.0810722
-0.0818014
-0.0831403
-0.0842464
-0.0854829
-0.0867112
-0.087912
-0.0890522
-0.0900159
-0.0909597
-0.0913404
-0.0923347
-0.091302
-0.0782833
-0.0815037
-0.0822083
-0.0835112
-0.0845945
-0.0858112
-0.0870255
-0.0882135
-0.0893518
-0.0902898
-0.0912763
-0.0915126
-0.0927208
-0.0911033
-0.0789441
-0.0820319
-0.0827047
-0.0839617
-0.0850148
-0.0862051
-0.0874
-0.0885697
-0.0897052
-0.0906048
-0.0916585
-0.0916823
-0.0932182
-0.0908271
-0.0797167
-0.0826501
-0.0832835
-0.0844837
-0.0854982
-0.0866542
-0.0878234
-0.0889679
-0.0901
-0.0909436
-0.0920996
-0.0918202
-0.093837
-0.0904546
-0.080591
-0.0833509
-0.0839364
-0.0850682
-0.0860344
-0.087147
-0.0882829
-0.0893939
-0.0905223
-0.0912861
-0.0925928
-0.0918936
-0.0945882
-0.0899542
-0.0815565
-0.0841263
-0.0846544
-0.0857056
-0.0866125
-0.0876711
-0.0887649
-0.0898321
-0.0909572
-0.0916105
-0.0931294
-0.0918667
-0.0954876
-0.0892658
-0.0826022
-0.0849681
-0.0854286
-0.0863858
-0.0872209
-0.0882135
-0.0892553
-0.0902666
-0.0913895
-0.0918938
-0.0937022
-0.0916944
-0.0965445
-0.0883586
-0.0837172
-0.085868
-0.0862499
-0.0870986
-0.0878481
-0.0887613
-0.0897396
-0.0906814
-0.0918035
-0.0921133
-0.0943178
-0.0913418
-0.0976433
-0.0875164
-0.0848911
-0.0868185
-0.0871095
-0.0878344
-0.0884829
-0.0893019
-0.0902043
-0.0910614
-0.0921848
-0.0922469
-0.0949614
-0.0909412
-0.0984288
-0.0867631
-0.0861141
-0.0878122
-0.0879993
-0.088584
-0.0891149
-0.0898236
-0.0906363
-0.0913925
-0.0925193
-0.092302
-0.095349
-0.0906629
-0.0991581
-0.0858427
-0.0873779
-0.0888431
-0.0889121
-0.0893392
-0.0897346
-0.090316
-0.0910245
-0.0916626
-0.0927751
-0.0923669
-0.0956178
-0.0901912
-0.0999027
-0.0847809
-0.0886757
-0.0899061
-0.0898419
-0.0900932
-0.0903343
-0.0907704
-0.0913598
-0.0918723
-0.0929244
-0.092342
-0.0958475
-0.0895214
-0.100577
-0.0836515
-0.0900024
-0.0909973
-0.0907842
-0.0908408
-0.0909079
-0.0911804
-0.0916329
-0.0920131
-0.0929882
-0.0922009
-0.0959861
-0.0887255
-0.101065
-0.0825558
-0.0913554
-0.0921148
-0.091736
-0.0915785
-0.0914514
-0.0915426
-0.0918411
-0.092076
-0.092964
-0.0919645
-0.0959759
-0.0878682
-0.101224
-0.0816272
-0.0927341
-0.0932579
-0.0926963
-0.0923047
-0.0919633
-0.0918552
-0.0919844
-0.0920629
-0.092843
-0.091655
-0.0957689
-0.0870295
-0.100882
-0.0809839
-0.0941409
-0.094428
-0.0936658
-0.09302
-0.0924448
-0.0921201
-0.0920649
-0.0919799
-0.092622
-0.0912905
-0.0953225
-0.0862877
-0.0998741
-0.0806442
-0.0955806
-0.0956285
-0.0946472
-0.0937276
-0.0928994
-0.0923421
-0.092088
-0.0918353
-0.0923039
-0.0908815
-0.0946072
-0.0856865
-0.0981084
-0.0804603
-0.097061
-0.0968653
-0.0956451
-0.0944326
-0.0933335
-0.0925291
-0.0920623
-0.0916387
-0.091897
-0.0904254
-0.0936161
-0.0852021
-0.0956272
-0.0801419
-0.0981445
-0.0966672
-0.0951426
-0.0937565
-0.0926918
-0.0919994
-0.0914
-0.091414
-0.0899046
-0.0923658
-0.0847329
-0.0926031
-0.079379
-0.0994688
-0.0977283
-0.0958678
-0.0941799
-0.0928436
-0.0919131
-0.0911278
-0.090868
-0.0892936
-0.0908855
-0.0841265
-0.0892602
-0.0779738
-0.100857
-0.0988328
-0.0966201
-0.0946177
-0.0929997
-0.0918185
-0.0908285
-0.0902666
-0.088567
-0.0892018
-0.0832333
-0.0857714
-0.0758868
-0.10232
-0.0999941
-0.0974137
-0.095086
-0.0931764
-0.0917306
-0.0905071
-0.0896074
-0.0877035
-0.0873273
-0.0819519
-0.0821969
-0.0732032
-0.101228
-0.0982643
-0.0956019
-0.0933905
-0.0916621
-0.0901662
-0.088879
-0.0866838
-0.085262
-0.0802391
-0.0784772
-0.0701034
-0.10255
-0.0991888
-0.0961832
-0.0936575
-0.0916225
-0.0898062
-0.0880664
-0.0854862
-0.0830059
-0.0780912
-0.0744888
-0.0668641
-0.103977
-0.100205
-0.0968476
-0.0939906
-0.0916163
-0.0894239
-0.0871549
-0.0840868
-0.0805664
-0.0755183
-0.0702225
-0.0637295
-0.105527
-0.10133
-0.0976115
-0.0943998
-0.0916444
-0.0890124
-0.0861308
-0.082464
-0.0779501
-0.0725386
-0.0659888
-0.0604291
-0.102583
-0.0984889
-0.094891
-0.0917049
-0.0885605
-0.0849791
-0.080606
-0.0751521
-0.0692009
-0.0619686
-0.0560754
-0.103979
-0.0994907
-0.095467
-0.0917941
-0.0880525
-0.0836832
-0.0785108
-0.0721673
-0.065626
-0.0578223
-0.0515339
-0.100624
-0.0961288
-0.0919052
-0.0874674
-0.0822262
-0.0761851
-0.0690073
-0.0618505
-0.0536042
-0.0469408
-0.101893
-0.0968766
-0.0920257
-0.0867811
-0.0805941
-0.0736434
-0.065681
-0.0579284
-0.049299
-0.0422915
-0.103301
-0.0977087
-0.092135
-0.0859689
-0.0787779
-0.0709024
-0.062204
-0.053888
-0.0449134
-0.0376203
-0.0986179
-0.0922053
-0.0850083
-0.0767738
-0.0679793
-0.0585908
-0.0497488
-0.0404575
-0.0329098
-0.0995878
-0.0922036
-0.0838812
-0.0745823
-0.0648895
-0.054854
-0.0455218
-0.0359346
-0.0281593
-0.0920966
-0.0825741
-0.0722066
-0.0616454
-0.0510029
-0.0412117
-0.0313472
-0.0233593
-0.0810776
-0.0696506
-0.0582562
-0.0470431
-0.0368194
-0.0266935
-0.0185029
-0.0793847
-0.0669178
-0.0547275
-0.0429766
-0.0323424
-0.02197
-0.0135825
-0.0640102
-0.0510616
-0.0388018
-0.0277762
-0.0171712
-0.00859064
-0.0472574
-0.0345149
-0.0231146
-0.0122905
-0.00352016
-0.0301096
-0.0183503
-0.0073209
0.00163614
-0.0134752
-0.00225459
0.00688528
0.00291623
0.0122341
0.0176891
0.0177218
-0.00845142
0.00294789
0.0122675
-0.0255508
-0.0134453
-0.00222227
0.00691962
-0.0300821
-0.0183198
-0.00728785
0.00167143
-0.0472334
-0.0344872
-0.0230836
-0.0122567
-0.00348383
-0.0639909
-0.0510376
-0.0387738
-0.0277446
-0.0171364
-0.00855315
-0.0793711
-0.066899
-0.0547037
-0.0429482
-0.03231
-0.0219342
-0.0135437
-0.0810648
-0.0696324
-0.0582325
-0.0470144
-0.0367862
-0.0266567
-0.0184627
-0.0920899
-0.0825623
-0.0721889
-0.0616218
-0.0509739
-0.0411777
-0.0313092
-0.0233176
-0.0995857
-0.0921978
-0.0838702
-0.0745653
-0.0648661
-0.0548246
-0.0454869
-0.0358952
-0.0281159
-0.0986165
-0.0922003
-0.0849982
-0.0767574
-0.0679561
-0.058561
-0.049713
-0.0404167
-0.0328645
-0.103301
-0.0977079
-0.092131
-0.0859597
-0.0787621
-0.0708794
-0.0621739
-0.0538511
-0.0448709
-0.0375729
-0.101894
-0.0968764
-0.0920224
-0.0867728
-0.080579
-0.0736206
-0.0656505
-0.0578904
-0.0492548
-0.0422418
-0.105536
-0.100626
-0.0961291
-0.0919026
-0.0874598
-0.0822118
-0.0761625
-0.0689763
-0.0618113
-0.0535581
-0.0468885
-0.103981
-0.0994924
-0.0954678
-0.0917921
-0.0880456
-0.0836694
-0.0784885
-0.072136
-0.0655856
-0.0577742
-0.0514787
-0.102584
-0.0984907
-0.0948921
-0.0917034
-0.0885543
-0.084966
-0.0805839
-0.0751205
-0.0691592
-0.0619183
-0.056017
-0.105527
-0.101332
-0.0976133
-0.0944011
-0.0916433
-0.0890067
-0.0861181
-0.0824422
-0.0779181
-0.0724956
-0.0659363
-0.0603671
-0.103977
-0.100206
-0.0968494
-0.093992
-0.0916154
-0.0894185
-0.0871426
-0.0840651
-0.080534
-0.075474
-0.0701676
-0.063664
-0.102549
-0.0991897
-0.0961848
-0.0936587
-0.0916216
-0.089801
-0.0880543
-0.0854647
-0.0829732
-0.0780457
-0.0744316
-0.0667952
-0.103868
-0.101227
-0.0982649
-0.0956032
-0.0933915
-0.0916611
-0.090161
-0.088867
-0.0866622
-0.0852289
-0.0801924
-0.0784178
-0.0700311
-0.102317
-0.0999928
-0.0974139
-0.0950869
-0.093177
-0.0917292
-0.0905016
-0.0895952
-0.0876818
-0.0872938
-0.0819039
-0.0821355
-0.0731273
-0.100854
-0.0988311
-0.0966198
-0.0946181
-0.0929997
-0.0918166
-0.0908226
-0.0902541
-0.088545
-0.0891678
-0.0831843
-0.0857081
-0.0758071
-0.0994655
-0.097726
-0.0958669
-0.0941796
-0.092843
-0.0919105
-0.0911213
-0.0908549
-0.0892712
-0.0908509
-0.0840763
-0.0891952
-0.0778905
-0.0981408
-0.0966643
-0.0951411
-0.0937555
-0.0926905
-0.091996
-0.0913928
-0.0914002
-0.0898817
-0.0923305
-0.0846816
-0.0925366
-0.0792923
-0.0970546
-0.0968609
-0.0956417
-0.0944304
-0.0933318
-0.0925269
-0.0920581
-0.0916306
-0.0918824
-0.0904017
-0.0935801
-0.0851498
-0.0955593
-0.080052
-0.0955736
-0.0956236
-0.0946432
-0.0937247
-0.0928969
-0.092339
-0.0920829
-0.0918262
-0.0922883
-0.090857
-0.0945703
-0.0856331
-0.0980391
-0.0803678
-0.0941333
-0.0944226
-0.0936612
-0.0930166
-0.0924416
-0.0921162
-0.0920589
-0.0919699
-0.0926055
-0.091265
-0.0952848
-0.0862334
-0.0998036
-0.0805496
-0.092726
-0.0932521
-0.0926912
-0.0923006
-0.0919594
-0.0918505
-0.0919774
-0.0920519
-0.0928255
-0.0916286
-0.0957304
-0.0869745
-0.100811
-0.0808878
-0.0913468
-0.0921086
-0.0917305
-0.0915738
-0.0914468
-0.091537
-0.0918333
-0.0920641
-0.0929457
-0.0919373
-0.0959366
-0.0878126
-0.101152
-0.0815303
-0.0899935
-0.0909908
-0.0907783
-0.0908357
-0.0909027
-0.0911741
-0.0916243
-0.0920003
-0.0929691
-0.0921729
-0.0959463
-0.0886695
-0.100992
-0.0824587
-0.0886665
-0.0898993
-0.0898357
-0.0900877
-0.0903286
-0.0907636
-0.0913504
-0.0918589
-0.0929048
-0.0923134
-0.0958074
-0.0894653
-0.100504
-0.0835549
-0.0873687
-0.0888362
-0.0889057
-0.0893334
-0.0897285
-0.0903087
-0.0910147
-0.0916488
-0.0927551
-0.092338
-0.0955781
-0.0901352
-0.0998301
-0.0846855
-0.0861048
-0.0878053
-0.0879927
-0.0885779
-0.0891085
-0.089816
-0.0906261
-0.0913783
-0.0924989
-0.0922732
-0.0953095
-0.090608
-0.0990867
-0.0857494
-0.0848819
-0.0868115
-0.087103
-0.0878283
-0.0884763
-0.0892941
-0.0901939
-0.0910472
-0.0921646
-0.0922192
-0.0949202
-0.0908895
-0.0983593
-0.0866728
-0.0837083
-0.0858613
-0.0862435
-0.0870925
-0.0878415
-0.0887535
-0.0897294
-0.0906674
-0.0917838
-0.0920864
-0.094279
-0.0912918
-0.0975759
-0.0874302
-0.0825937
-0.0849615
-0.0854224
-0.0863798
-0.0872144
-0.0882058
-0.0892452
-0.090253
-0.0913705
-0.0918679
-0.0936656
-0.0916466
-0.0964795
-0.0882792
-0.0815485
-0.0841201
-0.0846485
-0.0856999
-0.0866063
-0.0876636
-0.0887554
-0.0898192
-0.0909393
-0.0915861
-0.0930952
-0.0918219
-0.0954271
-0.0891913
-0.0805836
-0.0833452
-0.0839308
-0.0850629
-0.0860286
-0.08714
-0.088274
-0.0893819
-0.0905057
-0.0912636
-0.0925614
-0.0918525
-0.0945331
-0.0898855
-0.07971
-0.0826449
-0.0832785
-0.0844788
-0.0854928
-0.0866478
-0.0878152
-0.088957
-0.0900851
-0.0909232
-0.0920715
-0.0917833
-0.0937878
-0.090393
-0.0789383
-0.0820273
-0.0827003
-0.0839573
-0.0850101
-0.0861995
-0.0873928
-0.0885601
-0.0896921
-0.090587
-0.091634
-0.0916501
-0.0931756
-0.0907735
-0.0782783
-0.0814998
-0.0822045
-0.0835075
-0.0845905
-0.0858065
-0.0870195
-0.0882054
-0.0893408
-0.0902749
-0.0912558
-0.0914857
-0.0926852
-0.0910584
-0.077739
-0.0810692
-0.0817984
-0.0831373
-0.0842432
-0.085479
-0.0867064
-0.0879056
-0.0890435
-0.090004
-0.0909435
-0.0913191
-0.0923065
-0.0912664
-0.0773278
-0.080741
-0.0814882
-0.0828536
-0.0839758
-0.0852257
-0.086463
-0.0876712
-0.0888109
-0.0897886
-0.0907033
-0.0911741
-0.0920309
-0.0914116
-0.0770505
-0.0805199
-0.0812788
-0.0826616
-0.0837944
-0.0850532
-0.0862968
-0.0875105
-0.0886515
-0.0896395
-0.0905406
-0.0910686
-0.091852
-0.0915046
-0.0769111
-0.0804087
-0.0811735
-0.0825649
-0.0837028
-0.0849661
-0.0862128
-0.0874292
-0.088571
-0.089564
-0.0904594
-0.0910144
-0.0917656
-0.091552
-0.0921281
-0.0923317
-0.0925214
-0.0927177
-0.0929196
-0.0931263
-0.0933383
-0.0935561
-0.0937799
-0.0940102
-0.0942473
-0.0944913
-0.0947423
-0.0950001
-0.0952639
-0.0955327
-0.0958043
-0.0960756
-0.0963419
-0.0965968
-0.0968313
-0.0970331
-0.0971861
-0.0972691
-0.0972545
-0.0971072
-0.0967824
-0.0962239
-0.0953622
-0.0941123
-0.0923719
-0.090021
-0.0869189
-0.0829031
-0.0778182
-0.0715215
-0.0638661
-0.054767
-0.0442015
-0.0322966
-0.0198577
-0.00629299
-0.0921988
-0.0924034
-0.0925872
-0.0927816
-0.0929826
-0.0931886
-0.0933999
-0.0936172
-0.0938406
-0.0940706
-0.0943075
-0.0945516
-0.094803
-0.0950614
-0.0953262
-0.0955964
-0.0958699
-0.0961435
-0.0964128
-0.0966713
-0.0969101
-0.097117
-0.0972759
-0.0973658
-0.0973591
-0.0972206
-0.0969057
-0.0963582
-0.0955085
-0.0942714
-0.0925446
-0.0902075
-0.0871187
-0.0831151
-0.0780382
-0.0717452
-0.0640839
-0.0549637
-0.0443582
-0.0323732
-0.0198866
-0.00617947
-0.0923293
-0.0925364
-0.0927082
-0.0928983
-0.0930975
-0.0933018
-0.0935117
-0.0937277
-0.0939502
-0.0941795
-0.0944161
-0.0946603
-0.0949122
-0.0951719
-0.0954388
-0.0957119
-0.0959892
-0.0962679
-0.0965434
-0.0968095
-0.0970572
-0.0972748
-0.0974461
-0.0975502
-0.0975598
-0.0974397
-0.0971452
-0.0966203
-0.0957952
-0.0945843
-0.0928848
-0.0905753
-0.0875133
-0.0835334
-0.0784748
-0.0721893
-0.0645179
-0.0553586
-0.0446788
-0.0325379
-0.0199572
-0.00593493
-0.0925108
-0.0927231
-0.0928764
-0.0930599
-0.0932562
-0.093458
-0.0936656
-0.0938798
-0.0941007
-0.094329
-0.094565
-0.0948093
-0.0950622
-0.0953238
-0.0955937
-0.095871
-0.096154
-0.0964399
-0.0967245
-0.0970015
-0.0972625
-0.0974956
-0.097685
-0.0978099
-0.0978431
-0.0977496
-0.0974849
-0.0969927
-0.0962031
-0.09503
-0.0933699
-0.0911004
-0.088077
-0.0841317
-0.0791008
-0.0728285
-0.0651471
-0.055938
-0.0451623
-0.0328019
-0.0200877
-0.00552869
-0.0927326
-0.0929546
-0.0930821
-0.0932558
-0.0934481
-0.0936463
-0.0938509
-0.0940625
-0.0942814
-0.0945083
-0.0947436
-0.0949881
-0.0952422
-0.0955062
-0.0957799
-0.0960625
-0.0963527
-0.0966477
-0.0969437
-0.0972346
-0.0975121
-0.0977647
-0.0979767
-0.0981276
-0.0981904
-0.0981302
-0.0979026
-0.0974512
-0.0967059
-0.09558
-0.0939692
-0.0917495
-0.0887746
-0.0848732
-0.0798791
-0.073627
-0.0659403
-0.056679
-0.0458025
-0.0331766
-0.0203044
-0.00493144
-0.0929855
-0.0932225
-0.0933154
-0.093475
-0.0936616
-0.0938547
-0.094055
-0.0942633
-0.0944797
-0.0947048
-0.0949394
-0.0951841
-0.0954397
-0.0957065
-0.0959846
-0.0962735
-0.096572
-0.0968776
-0.0971866
-0.0974935
-0.09779
-0.0980649
-0.0983029
-0.0984836
-0.0985802
-0.0985581
-0.0983729
-0.0979681
-0.0972733
-0.0962013
-0.0946467
-0.0924841
-0.0895651
-0.0857148
-0.0807656
-0.0745411
-0.0668577
-0.0575498
-0.0465838
-0.0336692
-0.0206373
-0.00413198
-0.093266
-0.0935216
-0.0935677
-0.0937072
-0.093885
-0.0940709
-0.0942651
-0.094469
-0.0946823
-0.0949054
-0.0951392
-0.0953843
-0.0956416
-0.0959116
-0.0961947
-0.0964905
-0.096798
-0.0971152
-0.0974385
-0.0977625
-0.0980795
-0.0983785
-0.0986445
-0.0988572
-0.0989901
-0.0990089
-0.0988691
-0.0985143
-0.0978736
-0.0968594
-0.095365
-0.0932639
-0.0904052
-0.0866104
-0.0817131
-0.0755233
-0.0678537
-0.0585098
-0.0474789
-0.0342792
-0.021109
-0.00313327
-0.0935769
-0.0938457
-0.0938302
-0.093943
-0.0941079
-0.094283
-0.0944689
-0.0946669
-0.0948763
-0.0950972
-0.09533
-0.0955757
-0.0958351
-0.0961088
-0.0963973
-0.0967005
-0.0970176
-0.0973468
-0.0976848
-0.0980266
-0.0983647
-0.0986884
-0.098983
-0.0992285
-0.0993986
-0.099459
-0.0993656
-0.0990617
-0.0984762
-0.097521
-0.0960882
-0.0940501
-0.0912533
-0.087516
-0.0826756
-0.0765258
-0.0688805
-0.0595138
-0.04845
-0.0349945
-0.0217295
-0.00194231
-0.0940007
-0.094196
-0.0940971
-0.0941785
-0.0943234
-0.0944818
-0.0946556
-0.0948457
-0.0950502
-0.0952684
-0.0955004
-0.0957469
-0.0960087
-0.0962865
-0.0965808
-0.0968917
-0.0972186
-0.0975599
-0.0979127
-0.0982722
-0.0986312
-0.0989792
-0.0993019
-0.0995796
-0.0997861
-0.0998872
-0.0998391
-0.0995851
-0.0990536
-0.098156
-0.0967837
-0.0948073
-0.0920717
-0.0883957
-0.0836105
-0.0775041
-0.0698929
-0.0605166
-0.0494548
-0.0357764
-0.0225278
-0.00078763
-0.0948659
-0.0945756
-0.0943783
-0.0944166
-0.0945268
-0.09466
-0.0948168
-0.094996
-0.0951941
-0.0954091
-0.0956402
-0.0958879
-0.0961525
-0.0964347
-0.0967351
-0.0970539
-0.0973907
-0.097744
-0.0981112
-0.0984877
-0.0988666
-0.0992378
-0.0995871
-0.0998951
-0.100136
-0.100275
-0.10027
-0.100063
-0.0995822
-0.098739
-0.0974237
-0.0955059
-0.0928243
-0.0891926
-0.0844764
-0.0784199
-0.0708508
-0.0614768
-0.0504515
-0.0365742
-0.0234876
-0.00073761
-0.0947384
-0.0949831
-0.0946616
-0.0946097
-0.0946909
-0.0948045
-0.0949431
-0.0951094
-0.0952998
-0.0955109
-0.0957411
-0.09599
-0.0962577
-0.0965448
-0.0968517
-0.0971785
-0.097525
-0.0978899
-0.0982707
-0.0986631
-0.0990605
-0.099453
-0.0998266
-0.100162
-0.100434
-0.100609
-0.100642
-0.100477
-0.100042
-0.0992488
-0.0979855
-0.0961216
-0.0934911
-0.0899023
-0.0852511
-0.0792421
-0.0717177
-0.0623608
-0.0513498
-0.0375177
-0.024142
-0.00200507
-0.0948257
-0.0953392
-0.0949032
-0.0947647
-0.0948169
-0.0949098
-0.0950281
-0.0951793
-0.0953606
-0.095567
-0.0957958
-0.0960459
-0.096317
-0.0966091
-0.0969226
-0.0972575
-0.0976134
-0.0979894
-0.0983829
-0.0987899
-0.0992039
-0.0996153
-0.10001
-0.10037
-0.10067
-0.100874
-0.100941
-0.100813
-0.100419
-0.0996688
-0.0984512
-0.0966356
-0.0940555
-0.0905578
-0.0859126
-0.079947
-0.0724682
-0.0631377
-0.0521573
-0.038369
-0.0247982
-0.00319414
-0.0948667
-0.0956133
-0.0950911
-0.0948718
-0.0948947
-0.0949675
-0.0950648
-0.0951992
-0.0953698
-0.0955705
-0.0957973
-0.0960483
-0.0963227
-0.09662
-0.0969401
-0.097283
-0.0976482
-0.0980345
-0.0984397
-0.0988598
-0.0992885
-0.0997163
-0.10013
-0.10051
-0.100832
-0.101062
-0.101157
-0.10106
-0.100699
-0.0999854
-0.0988062
-0.0970297
-0.0944923
-0.0910401
-0.0864399
-0.0805148
-0.0730822
-0.0637831
-0.0528475
-0.0390964
-0.025411
-0.00425174
-0.0947556
-0.0957741
-0.0951989
-0.0949052
-0.094904
-0.0949622
-0.095041
-0.0951589
-0.0953183
-0.0955126
-0.0957368
-0.0959884
-0.0962659
-0.0965684
-0.0968951
-0.0972459
-0.0976199
-0.098016
-0.0984319
-0.0988636
-0.0993049
-0.0997465
-0.100175
-0.100572
-0.100912
-0.101163
-0.101279
-0.101206
-0.100872
-0.100187
-0.0990394
-0.0972897
-0.0947208
-0.0913652
-0.0868168
-0.0809312
-0.0735441
-0.0642807
-0.053397
-0.0396922
-0.0259182
-0.00522383
-0.094423
-0.0957559
-0.0951782
-0.0948288
-0.094815
-0.0948698
-0.0949371
-0.0950417
-0.0951913
-0.0953799
-0.0956017
-0.0958539
-0.0961345
-0.0964421
-0.0967756
-0.0971341
-0.0975168
-0.0979222
-0.0983479
-0.0987898
-0.0992419
-0.0996948
-0.100135
-0.100545
-0.100899
-0.101164
-0.101297
-0.101242
-0.100927
-0.100264
-0.0991399
-0.0974283
-0.0950076
-0.0915527
-0.0870336
-0.0811852
-0.073842
-0.0646185
-0.0537915
-0.0401452
-0.026296
-0.00609064
-0.0938037
-0.0954732
-0.0949647
-0.0945947
-0.0945873
-0.0946547
-0.0947228
-0.094822
-0.0949666
-0.0951522
-0.0953733
-0.095627
-0.0959114
-0.0962246
-0.0965652
-0.0969318
-0.0973232
-0.0977377
-0.0981726
-0.0986238
-0.0990851
-0.0995472
-0.0999969
-0.100416
-0.10078
-0.101055
-0.101198
-0.101154
-0.100851
-0.100203
-0.0990936
-0.0973822
-0.0949414
-0.0915634
-0.0870815
-0.081267
-0.0739669
-0.0647882
-0.0540213
-0.0404505
-0.0265358
-0.00683029
-0.0928709
-0.094849
-0.094487
-0.0941465
-0.0941705
-0.0942703
-0.0943566
-0.0944635
-0.0946119
-0.0948005
-0.095025
-0.0952831
-0.0955732
-0.0958935
-0.0962422
-0.0966178
-0.0970186
-0.0974425
-0.0978867
-0.0983467
-0.0988162
-0.099286
-0.0997428
-0.100168
-0.100538
-0.100819
-0.100967
-0.100929
-0.100632
-0.0999935
-0.0988964
-0.0971762
-0.0947637
-0.0914076
-0.0869507
-0.0811688
-0.0739109
-0.0647837
-0.0540796
-0.0406078
-0.0266362
-0.00743637
-0.0916506
-0.0938401
-0.0936825
-0.093427
-0.0935095
-0.0936622
-0.0937872
-0.0939195
-0.0940853
-0.0942867
-0.0945217
-0.0947895
-0.0950894
-0.0954198
-0.0957792
-0.0961657
-0.0965774
-0.097012
-0.0974662
-0.0979354
-0.0984131
-0.09889
-0.0993525
-0.0997827
-0.100155
-0.100439
-0.100588
-0.100551
-0.100255
-0.0996191
-0.0985356
-0.0968725
-0.0944078
-0.0910682
-0.0866323
-0.0808834
-0.0736678
-0.0646011
-0.0539624
-0.0406186
-0.0266022
-0.00791247
-0.0902017
-0.0924487
-0.0925155
-0.0923903
-0.0925524
-0.0927743
-0.0929589
-0.0931373
-0.0933373
-0.0935648
-0.0938211
-0.0941071
-0.0944233
-0.094769
-0.0951432
-0.0955441
-0.0959697
-0.0964173
-0.0968835
-0.0973634
-0.0978502
-0.0983344
-0.0988025
-0.0992364
-0.0996108
-0.0998941
-0.100042
-0.100003
-0.0997025
-0.0990629
-0.0979565
-0.0962991
-0.0938563
-0.0905353
-0.086118
-0.0804044
-0.0732324
-0.0642381
-0.0536682
-0.0404849
-0.0264422
-0.00826782
-0.0885607
-0.0907025
-0.0909829
-0.0910111
-0.0912592
-0.091558
-0.0918197
-0.0920644
-0.0923163
-0.0925856
-0.0928769
-0.0931928
-0.0935346
-0.0939033
-0.0942986
-0.0947192
-0.0951631
-0.0956276
-0.096109
-0.0966023
-0.0971003
-0.0975934
-0.0980679
-0.0985059
-0.0988817
-0.0991639
-0.0993086
-0.0992648
-0.0989592
-0.0983199
-0.0972055
-0.0955341
-0.0931025
-0.0897999
-0.0854009
-0.079727
-0.0726015
-0.0636943
-0.0531985
-0.0402099
-0.0261667
-0.00851472
-0.0866908
-0.0886211
-0.089099
-0.0892808
-0.0896048
-0.08998
-0.0903309
-0.0906575
-0.0909769
-0.0913038
-0.0916454
-0.0920045
-0.0923837
-0.0927854
-0.0932103
-0.0936578
-0.0941261
-0.0946127
-0.0951139
-0.0956245
-0.0961371
-0.0966419
-0.097125
-0.0975685
-0.0979465
-0.0982286
-0.0983703
-0.0983214
-0.0980085
-0.0973603
-0.0962494
-0.0945648
-0.0921407
-0.0888553
-0.0844762
-0.0788488
-0.0717743
-0.0629715
-0.0525577
-0.0397976
-0.0257873
-0.00866671
-0.0844968
-0.0861988
-0.0868727
-0.087194
-0.0875768
-0.0880256
-0.0884724
-0.0888892
-0.0892873
-0.089686
-0.0900925
-0.0905085
-0.0909376
-0.0913836
-0.0918482
-0.0923313
-0.0928316
-0.0933469
-0.0938737
-0.0944066
-0.0949381
-0.0954585
-0.0959533
-0.096405
-0.0967877
-0.0970719
-0.097212
-0.0971587
-0.0968373
-0.0961825
-0.0950792
-0.0933875
-0.0909644
-0.0876985
-0.0833428
-0.0777707
-0.0707537
-0.0620742
-0.0517535
-0.0392543
-0.0253158
-0.00873736
-0.0818961
-0.0834242
-0.0843023
-0.0847422
-0.0851726
-0.0856982
-0.0862431
-0.0867515
-0.0872349
-0.0877164
-0.0881999
-0.0886849
-0.0891758
-0.0896775
-0.090192
-0.0907197
-0.0912603
-0.0918117
-0.0923705
-0.0929315
-0.0934871
-0.0940276
-0.0945384
-0.0950025
-0.0953934
-0.0956828
-0.0958242
-0.0957694
-0.095441
-0.094765
-0.0936705
-0.0919874
-0.0895717
-0.0863309
-0.082004
-0.0764978
-0.0695468
-0.0610103
-0.0507973
-0.0385882
-0.0247646
-0.00873936
-0.0788801
-0.0803148
-0.0813879
-0.0819205
-0.0824033
-0.0830171
-0.0836588
-0.0842554
-0.0848276
-0.0853988
-0.085967
-0.0865301
-0.0870931
-0.0876606
-0.0882346
-0.088816
-0.089405
-0.0899999
-0.0905975
-0.0911929
-0.0917783
-0.0923442
-0.0928759
-0.0933569
-0.0937601
-0.0940584
-0.0942047
-0.0941535
-0.0938265
-0.0930824
-0.0920347
-0.0903696
-0.0879683
-0.0847595
-0.0804683
-0.0750396
-0.0681651
-0.059791
-0.0497033
-0.0378102
-0.0241457
-0.00868414
-0.075534
-0.0769329
-0.0781428
-0.0787385
-0.079297
-0.0800153
-0.0807499
-0.081432
-0.0820961
-0.0827604
-0.083417
-0.0840641
-0.0847067
-0.0853479
-0.0859894
-0.0866325
-0.0872774
-0.0879228
-0.0885656
-0.0892012
-0.0898219
-0.0904184
-0.0909756
-0.0914779
-0.0918974
-0.0922088
-0.0923635
-0.0923212
-0.0920101
-0.0913934
-0.0902036
-0.0885502
-0.0861678
-0.0829988
-0.0787518
-0.0734129
-0.0666271
-0.0584336
-0.0484911
-0.036935
-0.0234736
-0.0085825
-0.0720652
-0.073402
-0.0746144
-0.0752379
-0.0759012
-0.076735
-0.0775597
-0.0783319
-0.0790936
-0.0798524
-0.0805984
-0.081332
-0.0820572
-0.0827758
-0.0834889
-0.084198
-0.084903
-0.085603
-0.086295
-0.0869747
-0.0876343
-0.0882651
-0.0888519
-0.0893797
-0.0898202
-0.0901501
-0.0903191
-0.0902916
-0.0899871
-0.0893487
-0.0881846
-0.0865519
-0.0841938
-0.0810735
-0.0768803
-0.0716439
-0.0649602
-0.0569637
-0.0471878
-0.0359844
-0.0227671
-0.0084465
-0.0688396
-0.0699822
-0.0709687
-0.0715316
-0.0722697
-0.0731787
-0.0740697
-0.0749279
-0.0757841
-0.0766334
-0.0774675
-0.078288
-0.0790968
-0.0798946
-0.0806826
-0.0814617
-0.0822317
-0.0829916
-0.0837385
-0.084468
-0.0851727
-0.0858441
-0.0864668
-0.087027
-0.0874958
-0.0878525
-0.0880453
-0.0880455
-0.0877687
-0.0871611
-0.0859918
-0.0843801
-0.0820528
-0.0789915
-0.0748639
-0.0697434
-0.0631773
-0.0553928
-0.0458059
-0.0349671
-0.0220343
-0.00828535
-0.0658392
-0.0667501
-0.0672844
-0.0676612
-0.0683689
-0.0692538
-0.0701595
-0.0710813
-0.0720211
-0.0729624
-0.0738961
-0.0748194
-0.07573
-0.0766271
-0.0775105
-0.0783801
-0.0792351
-0.080074
-0.0808936
-0.0816898
-0.0824543
-0.0831792
-0.0838483
-0.0844485
-0.08495
-0.0853344
-0.0855462
-0.0855598
-0.085267
-0.0846694
-0.0835674
-0.0820042
-0.0797183
-0.0767236
-0.0726677
-0.06767
-0.0612312
-0.0536696
-0.044294
-0.0338376
-0.0212355
-0.00808979
-0.0610833
-0.0631072
-0.0638948
-0.0645683
-0.0654432
-0.0664034
-0.0673703
-0.0683438
-0.0693264
-0.0703114
-0.071292
-0.0722634
-0.0732225
-0.0741676
-0.0750979
-0.0760124
-0.0769097
-0.077788
-0.0786435
-0.0794719
-0.0802645
-0.0810137
-0.0817026
-0.0823193
-0.0828328
-0.0832278
-0.0834483
-0.0834823
-0.0832213
-0.082589
-0.081438
-0.0798626
-0.0775719
-0.0746015
-0.0705804
-0.0656701
-0.0593322
-0.051966
-0.042791
-0.0326954
-0.0204261
-0.00786791
-0.0567735
-0.0591732
-0.0601788
-0.0609403
-0.0618928
-0.0629518
-0.0640134
-0.065062
-0.0661099
-0.0671596
-0.0682057
-0.0692421
-0.0702656
-0.071274
-0.072266
-0.0732398
-0.0741933
-0.0751241
-0.0760276
-0.0768994
-0.0777301
-0.0785119
-0.0792273
-0.0798646
-0.0803917
-0.0807936
-0.0810122
-0.0810304
-0.0807285
-0.0800958
-0.0789865
-0.0774299
-0.0751604
-0.072236
-0.0682773
-0.0634786
-0.0572761
-0.0501302
-0.0411968
-0.031476
-0.0195839
-0.00760173
-0.0526562
-0.0553156
-0.0563474
-0.0571087
-0.0581154
-0.0592648
-0.0604131
-0.0615337
-0.0626464
-0.0637607
-0.0648718
-0.0659731
-0.0670606
-0.0681321
-0.0691855
-0.0702185
-0.0712282
-0.0722116
-0.0731634
-0.0740786
-0.0749473
-0.0757615
-0.0765031
-0.0771603
-0.0777008
-0.0781092
-0.0783274
-0.0783369
-0.0780329
-0.0774086
-0.076312
-0.074768
-0.0725227
-0.0696495
-0.0657655
-0.0610908
-0.0550458
-0.0481392
-0.039482
-0.0301585
-0.0186957
-0.00730435
-0.048631
-0.051366
-0.0523972
-0.0531724
-0.0542357
-0.0554655
-0.0566923
-0.0578812
-0.0590566
-0.0602326
-0.0614059
-0.0625692
-0.0637179
-0.0648495
-0.0659615
-0.0670511
-0.0681146
-0.0691485
-0.070147
-0.0711044
-0.0720104
-0.0728567
-0.0736249
-0.0743029
-0.0748586
-0.0752767
-0.0755001
-0.0755119
-0.0752164
-0.0746023
-0.0735156
-0.0719907
-0.0697791
-0.0669663
-0.063169
-0.058629
-0.0527571
-0.0460999
-0.0377386
-0.0288177
-0.0178102
-0.00699603
-0.0444059
-0.0472483
-0.0483315
-0.0491409
-0.0502562
-0.0515559
-0.0528552
-0.0541106
-0.0553476
-0.0565839
-0.0578173
-0.0590405
-0.0602482
-0.0614377
-0.0626061
-0.0637503
-0.064866
-0.0659489
-0.0669929
-0.0679917
-0.0689349
-0.0698134
-0.0706089
-0.0713092
-0.0718822
-0.072313
-0.072546
-0.0725659
-0.0722795
-0.0716776
-0.0706109
-0.0691155
-0.0669485
-0.0642063
-0.0605083
-0.0561131
-0.0504292
-0.0440293
-0.0359811
-0.0274645
-0.0169312
-0.00667708
-0.0400197
-0.0430019
-0.0441667
-0.0450203
-0.0461825
-0.0475442
-0.0489116
-0.0502321
-0.0515298
-0.0528247
-0.0541165
-0.0553976
-0.0566625
-0.0579078
-0.0591307
-0.0603276
-0.0614937
-0.0626243
-0.0637127
-0.0647524
-0.0657322
-0.0666433
-0.0674668
-0.0681906
-0.068783
-0.0692293
-0.0694753
-0.0695071
-0.0692334
-0.0686503
-0.0676115
-0.0661538
-0.0640413
-0.0613789
-0.0577924
-0.0535514
-0.0480693
-0.0419337
-0.0342142
-0.026102
-0.0160586
-0.00634891
-0.035566
-0.0386529
-0.0399086
-0.0408173
-0.0420265
-0.0434459
-0.0448784
-0.0462627
-0.0476202
-0.0489726
-0.0503212
-0.0516586
-0.0529788
-0.0542783
-0.0555538
-0.0568015
-0.0580164
-0.0591934
-0.0603252
-0.061405
-0.0624213
-0.0633651
-0.0642173
-0.064966
-0.0655796
-0.0660442
-0.0663068
-0.0663546
-0.0660995
-0.0655411
-0.0645367
-0.0631243
-0.0610757
-0.0585018
-0.0550379
-0.0509592
-0.0456915
-0.0398255
-0.032448
-0.0247384
-0.0151962
-0.0060154
-0.0310516
-0.0342129
-0.0355655
-0.0365406
-0.0377998
-0.0392744
-0.0407694
-0.0422162
-0.0436329
-0.0450419
-0.0464461
-0.0478385
-0.0492127
-0.050565
-0.0518918
-0.0531891
-0.0544516
-0.0556739
-0.0568483
-0.0579677
-0.0590206
-0.0599974
-0.0608793
-0.0616544
-0.0622916
-0.0627773
-0.0630602
-0.0631287
-0.062898
-0.0623697
-0.0614062
-0.0600465
-0.0580708
-0.0555935
-0.0522623
-0.0483533
-0.0433107
-0.0377183
-0.0306928
-0.0233826
-0.0143478
-0.00568035
-0.0264855
-0.0297042
-0.031154
-0.0322018
-0.0335133
-0.0350412
-0.036596
-0.0381039
-0.0395789
-0.0410437
-0.0425026
-0.043949
-0.0453763
-0.0467804
-0.0481575
-0.0495035
-0.0508129
-0.0520798
-0.0532966
-0.0544557
-0.0555454
-0.056556
-0.057469
-0.0582722
-0.0589356
-0.0594457
-0.0597529
-0.0598468
-0.059646
-0.0591535
-0.0582375
-0.0569375
-0.0550435
-0.0526702
-0.0494813
-0.0457482
-0.0409398
-0.0356236
-0.0289573
-0.0220421
-0.0135161
-0.00534699
-0.0218917
-0.0251486
-0.0266898
-0.0278124
-0.0291773
-0.0307568
-0.0323688
-0.033936
-0.0354682
-0.036988
-0.0385006
-0.0400001
-0.0414796
-0.0429347
-0.0443615
-0.0457556
-0.0471114
-0.0484229
-0.049682
-0.0508811
-0.0520084
-0.0530541
-0.0539997
-0.0548334
-0.0555257
-0.0560637
-0.0563996
-0.0565237
-0.0563584
-0.0559074
-0.0550458
-0.0538125
-0.0520083
-0.049746
-0.0467076
-0.0431559
-0.0385892
-0.0335509
-0.0272481
-0.0207228
-0.0127032
-0.00501809
-0.0172831
-0.0205609
-0.0221865
-0.0233836
-0.0248021
-0.0264314
-0.0280979
-0.0297222
-0.0313103
-0.0328839
-0.0344492
-0.0360008
-0.0375317
-0.0390372
-0.040513
-0.0419548
-0.0433569
-0.0447129
-0.0460147
-0.0472545
-0.0484205
-0.0495026
-0.050483
-0.0513496
-0.052074
-0.0526435
-0.0530126
-0.0531718
-0.0530478
-0.0526443
-0.0518438
-0.0506838
-0.0489771
-0.0468325
-0.0439521
-0.0405868
-0.0362674
-0.031508
-0.0255706
-0.0194295
-0.0119104
-0.00469591
-0.0126675
-0.0159543
-0.017657
-0.0189267
-0.0203981
-0.022075
-0.0237934
-0.0254723
-0.0271146
-0.0287407
-0.0303574
-0.0319599
-0.0335413
-0.0350963
-0.0366206
-0.0381098
-0.039558
-0.0409587
-0.0423037
-0.043585
-0.0447908
-0.0459112
-0.0469285
-0.0478307
-0.0485906
-0.0491956
-0.0496024
-0.0498017
-0.0497247
-0.0493747
-0.0486419
-0.0475619
-0.0459598
-0.0439392
-0.0412234
-0.0380487
-0.033981
-0.0295009
-0.0239285
-0.0181659