/*--------------------------------*- C++ -*----------------------------------*\
  =========                 |
  \\      /  F ield         | OpenFOAM: The Open Source CFD Toolbox
   \\    /   O peration     | Website:  https://openfoam.org
    \\  /    A nd           | Version:  7
     \\/     M anipulation  |
\*---------------------------------------------------------------------------*/
FoamFile
{
    version     2.0;
    format      ascii;
    class       surfaceScalarField;
    location    "20";
    object      phi;
}
// * * * * * * * * * * * * * * * * * * * * * * * * * * * * * * * * * * * * * //

dimensions      [0 3 -1 0 0 0 0];

internalField   nonuniform List<scalar> 
16429
(
-1.40005e-05
1.40772e-05
-7.66552e-08
-4.48989e-05
3.10735e-05
-1.75091e-07
-8.74695e-05
4.2813e-05
-2.42396e-07
-0.000138115
5.09336e-05
-2.8754e-07
-0.000194848
5.7055e-05
-3.22242e-07
-0.000256635
6.21406e-05
-3.54347e-07
-0.000323079
6.68319e-05
-3.87829e-07
-0.000394084
7.14283e-05
-4.22694e-07
-0.000469713
7.60849e-05
-4.56269e-07
-0.000549897
8.06683e-05
-4.83909e-07
-0.000635084
8.56865e-05
-4.99659e-07
-0.000724566
8.9976e-05
-4.94478e-07
-0.000822011
9.79076e-05
-4.61811e-07
0.000102041
-3.87247e-07
-0.000923665
-1.38622e-05
2.79393e-05
-4.44858e-05
6.16971e-05
-8.66757e-05
8.50029e-05
-0.000136838
0.000101096
-0.000192966
0.000113182
-0.000253993
0.000123168
-0.000319485
0.000132324
-0.000389299
0.000141242
-0.000463443
0.000150229
-0.000541758
0.000158984
-0.000624646
0.000168574
-0.000711031
0.000176361
-0.000804824
0.0001917
0.000198183
-0.000900966
-1.35895e-05
4.15289e-05
-4.36698e-05
9.17774e-05
-8.51055e-05
0.000126439
-0.000134309
0.0001503
-0.000189233
0.000168106
-0.000248752
0.000182687
-0.000312353
0.000195925
-0.000379796
0.000208684
-0.000450988
0.000221421
-0.00052559
0.000233586
-0.000603927
0.000246911
-0.000684181
0.000256615
-0.000770807
0.000278327
0.000283485
-0.000856109
-1.3189e-05
5.47179e-05
-4.24679e-05
0.000121056
-8.27873e-05
0.000166758
-0.000130568
0.00019808
-0.000183705
0.000221244
-0.000240982
0.000239964
-0.000301768
0.000256711
-0.000365684
0.0002726
-0.000432488
0.000288225
-0.000501571
0.000302669
-0.000573188
0.000318528
-0.000644382
0.00032781
-0.000720579
0.000354524
0.000352967
-0.000790061
-1.26704e-05
6.73883e-05
-4.09047e-05
0.000149291
-7.97625e-05
0.000205616
-0.000125674
0.000243991
-0.000176459
0.000272029
-0.000230781
0.000294286
-0.000287857
0.000313787
-0.000347121
0.000331864
-0.000408141
0.000349245
-0.000469953
0.000364481
-0.000532783
0.000381359
-0.000592123
0.000387149
-0.000654935
0.000417336
0.000402123
-0.000704091
-1.20461e-05
7.94344e-05
-3.90124e-05
0.000176257
-7.60853e-05
0.000242689
-0.000119704
0.00028761
-0.000167597
0.000319922
-0.000218281
0.00034497
-0.000270783
0.00036629
-0.000324308
0.000385389
-0.000378196
0.000403133
-0.000431036
0.000417321
-0.000483119
0.000433441
-0.000527941
0.000431971
-0.000574688
0.000464083
0.000427012
-0.000599577
-1.1331e-05
9.07653e-05
-3.68295e-05
0.000201755
-7.18208e-05
0.00027768
-0.000112751
0.00032854
-0.000157242
0.000364413
-0.000203636
0.000391364
-0.000250739
0.000413393
-0.000297481
0.000432132
-0.000342937
0.000448589
-0.000385156
0.00045954
-0.000424601
0.000472886
-0.000452369
0.000459739
-0.000480486
0.0004922
0.000424299
-0.000477772
-1.05422e-05
0.000101308
-3.44004e-05
0.000225614
-6.70437e-05
0.000310323
-0.000104922
0.000366419
-0.000145534
0.000405025
-0.000187024
0.000432854
-0.000227942
0.000454311
-0.0002669
0.00047109
-0.000302666
0.000484355
-0.000332657
0.00048953
-0.000357586
0.000497815
-0.00036589
0.000468044
-0.0003726
0.000498909
0.000391293
-0.000339593
-9.69843e-06
0.000111006
-3.17736e-05
0.000247689
-6.18365e-05
0.000340386
-9.63344e-05
0.000400917
-0.000132626
0.000441317
-0.000168636
0.000468864
-0.000202623
0.000488298
-0.000232835
0.000501301
-0.000257687
0.000509207
-0.000273878
0.00050572
-0.000282324
0.000506261
-0.000268935
0.000454656
-0.000250697
0.00048067
0.000326137
-0.000185541
-8.81948e-06
0.000119825
-2.90007e-05
0.00026787
-5.62867e-05
0.000367672
-8.71116e-05
0.000431742
-0.00011868
0.000472886
-0.000148671
0.000498855
-0.000175018
0.000514645
-0.000195553
0.000521837
-0.000208275
0.000521929
-0.000209125
0.00050657
-0.000198895
0.000496031
-0.000162004
0.000417764
-0.000113358
0.000432025
0.000230652
-1.78727e-05
-7.92569e-06
0.000127751
-2.61351e-05
0.000286079
-5.04847e-05
0.000392022
-7.73817e-05
0.000458639
-0.00010386
0.000499364
-0.000127327
0.000522321
-0.00014535
0.000532668
-0.000155297
0.000531783
-0.000154651
0.000521283
-0.000138649
0.000490568
-0.000106986
0.000464369
-4.64526e-05
0.00035723
3.91703e-05
0.000346402
9.51349e-05
0.000174687
-7.03735e-06
0.000134788
-2.32297e-05
0.000302272
-4.45205e-05
0.000413312
-6.72708e-05
0.000481389
-8.83242e-05
0.000520417
-0.000104787
0.000538784
-0.000113818
0.000541699
-0.000112256
0.00053022
-9.69351e-05
0.000505963
-6.28063e-05
0.000456439
-3.69735e-06
0.00040526
8.35144e-05
0.000270019
0.000199557
0.000230359
-9.12709e-05
0.000385963
-6.17405e-06
0.000140963
-2.03358e-05
0.000316433
-3.84803e-05
0.000431457
-5.68978e-05
0.000499806
-7.22177e-05
0.000535737
-8.12118e-05
0.000547779
-8.05743e-05
0.000541062
-6.65454e-05
0.000516192
-3.49396e-05
0.000474357
1.81918e-05
0.000403308
0.000101774
0.000321677
0.000226895
0.000144898
0.000379533
7.77215e-05
-0.000332034
0.000620296
-5.35396e-06
0.000146316
-1.75007e-05
0.00032858
-3.24431e-05
0.000446399
-4.63689e-05
0.000513732
-5.56627e-05
0.000545031
-5.67183e-05
0.000548834
-4.5699e-05
0.000530042
-1.82499e-05
0.000488742
3.12044e-05
0.000424903
0.000107679
0.000326834
0.000219189
0.000210166
0.000382396
-1.83093e-05
0.000579333
-0.000119215
-0.000633306
0.000880604
-4.59323e-06
0.00015091
-1.47658e-05
0.000338753
-2.64764e-05
0.00045811
-3.57701e-05
0.000523026
-3.87475e-05
0.000548008
-3.13673e-05
0.000541454
-9.15367e-06
0.000507829
3.30118e-05
0.000446577
0.000101627
0.000356287
0.000203325
0.000225136
0.000348004
6.54876e-05
0.000552105
-0.00022241
0.000800596
-0.000367706
-0.00100136
0.00116865
-3.90527e-06
0.000154815
-1.21645e-05
0.000347012
-2.06322e-05
0.000466578
-2.51606e-05
0.000527554
-2.15146e-05
0.000544362
-5.14917e-06
0.000525089
2.91435e-05
0.000473536
8.74816e-05
0.000388239
0.000177618
0.00026615
0.000306928
9.58262e-05
0.000489659
-0.000117243
0.000738011
-0.000470762
0.00104496
-0.000674657
-0.0014406
0.00148421
-3.3001e-06
0.000158115
-9.72027e-06
0.000353432
-1.49429e-05
0.0004718
-1.45649e-05
0.000527176
-3.94826e-06
0.000533746
2.20611e-05
0.000499079
6.95224e-05
0.000426075
0.000145677
0.000312084
0.000260011
0.000151816
0.000420128
-6.42908e-05
0.000645892
-0.000343007
0.000942294
-0.000767164
0.00131351
-0.00104587
-0.0019512
0.0018241
-2.78377e-06
0.000160899
-7.4446e-06
0.000358093
-9.41683e-06
0.000473773
-3.96505e-06
0.000521725
1.40368e-05
0.000515744
5.04749e-05
0.000462641
0.00011244
0.00036411
0.000208453
0.000216072
0.000350051
1.02181e-05
0.000544922
-0.000259163
0.000818303
-0.000616388
0.00116673
-0.00111559
0.00160588
-0.00148503
-0.00252671
0.0021814
-2.35784e-06
0.000163257
-5.33502e-06
0.00036107
-4.03477e-06
0.000472472
6.70321e-06
0.000510987
3.26071e-05
0.00048984
8.04461e-05
0.000414802
0.000158545
0.00028601
0.000276887
9.77298e-05
0.00044919
-0.000162085
0.00068348
-0.000493453
0.00100799
-0.000940894
0.0014117
-0.00151931
0.00191892
-0.00199224
-0.00315305
0.00254525
-2.01892e-06
0.000165276
-3.37336e-06
0.000362425
1.25376e-06
0.000467845
1.75627e-05
0.000494678
5.20197e-05
0.000455383
0.000112464
0.000354358
0.000208676
0.000189798
0.000352278
-4.58722e-05
0.000558956
-0.000368763
0.000837664
-0.000772161
0.0012151
-0.00131833
0.00167506
-0.00197927
0.00224528
-0.00256247
-0.00380941
0.00290164
-1.75844e-06
-1.5219e-06
0.000362188
6.53288e-06
0.00045979
2.87938e-05
0.000472417
7.26264e-05
0.00041155
0.000147156
0.000279828
0.000263834
7.31201e-05
0.00043605
-0.000218088
0.000680773
-0.000613486
0.00100834
-0.00109973
0.00143826
-0.00174825
0.00195136
-0.00249236
0.00257293
-0.00318403
-0.00447152
0.00323504
2.82743e-07
0.000360342
1.19207e-05
0.000448152
4.06374e-05
0.0004437
9.48741e-05
0.000357314
0.000185274
0.000189429
0.000325136
-6.67428e-05
0.000529599
-0.000422551
0.000815711
-0.000899598
0.00119474
-0.00147876
0.00167385
-0.00222735
0.00223176
-0.00305027
0.00288624
-0.00383852
-0.00511591
0.00353064
2.02328e-06
0.000356902
1.7567e-05
0.000432609
5.33936e-05
0.000407874
0.000119297
0.000291411
0.000227668
8.10578e-05
0.000393727
-0.000232802
0.000634052
-0.000662875
0.000964097
-0.00122964
0.00139403
-0.0019087
0.00191548
-0.0027488
0.0025048
-0.00363959
0.00316887
-0.00450259
-0.00572367
0.00377663
3.87503e-06
0.000351734
2.36596e-05
0.000412824
6.7416e-05
0.000364117
0.000146498
0.000212328
0.000275238
-4.7682e-05
0.000470656
-0.00042822
0.000749981
-0.0009422
0.001125
-0.00160466
0.00160124
-0.00238494
0.00215428
-0.00330184
0.00275803
-0.00424333
0.00340715
-0.00515171
-0.00628241
0.00396589
5.90765e-06
3.04102e-05
0.000388322
8.31012e-05
0.000311426
0.000177128
0.000118301
0.000328865
-0.000199419
0.000556711
-0.000656066
0.000877101
-0.00126259
0.00129577
-0.00202333
0.00180952
-0.00289869
0.00238006
-0.00387238
0.00298
-0.00484327
0.0035927
-0.00576441
-0.00678632
0.00409661
3.80513e-05
0.000358495
0.000100874
0.000248604
0.00021184
7.33479e-06
0.000389313
-0.000376892
0.000652216
-0.00091897
0.00101401
-0.00162438
0.00147185
-0.00248118
0.00201074
-0.00343758
0.00258304
-0.00444468
0.00316218
-0.00542242
0.00372311
-0.00632533
-0.00723493
0.00417172
4.68284e-05
0.000322605
0.000121166
0.000174266
0.000251248
-0.000122747
0.000457114
-0.000582757
0.000756804
-0.00121866
0.00115799
-0.00202557
0.00164713
-0.00297031
0.00219664
-0.0039871
0.00275553
-0.00500357
0.00329995
-0.00596684
0.00380087
-0.00682625
-0.00763278
0.00419872
5.69897e-05
0.00027978
0.000144397
8.68589e-05
0.000295866
-0.000274217
0.000532435
-0.000819326
0.000869217
-0.00155544
0.00130509
-0.00246145
0.00181468
-0.0034799
0.00236001
-0.00453242
0.00289281
-0.00553637
0.00339278
-0.0064668
0.00383154
-0.007265
-0.00799587
0.00419462
6.87755e-05
0.000170943
-1.53083e-05
0.000346044
-0.000449318
0.000614938
-0.00108822
0.000987203
-0.00192771
0.00145035
-0.0029246
0.00196784
-0.00399738
0.0024957
-0.00506028
0.00299316
-0.00603384
0.00344383
-0.00691747
0.00382933
-0.0076505
-0.00835545
0.00418891
0.000201114
-0.000134015
0.000401889
-0.000650093
0.000703661
-0.00138999
0.00110757
-0.00233162
0.00158841
-0.00340543
0.0021011
-0.00451007
0.00260106
-0.00556024
0.00305745
-0.00649022
0.00345846
-0.00731848
0.00380721
-0.00799926
-0.00867458
0.00412634
0.000235121
0.000463196
-0.000878169
0.000796959
-0.00172375
0.00122646
-0.00276112
0.0017142
-0.00389318
0.00221074
-0.00500661
0.00267572
-0.00602522
0.00308866
-0.00690316
0.0034453
-0.00767512
0.00375726
-0.00831122
-0.00895766
0.00404034
0.000529371
-0.00113449
0.000892534
-0.00208692
0.00133974
-0.00320832
0.00182361
-0.00437705
0.002295
-0.00547801
0.00272109
-0.00645131
0.00309148
-0.00727355
0.00340847
-0.00799211
0.00368884
-0.00859159
-0.00921482
0.00394599
0.000599388
-0.00141908
0.000987596
-0.00247512
0.00144353
-0.00366425
0.00191383
-0.00484735
0.00235383
-0.00591801
0.00273992
-0.00683741
0.00307048
-0.00760411
0.00335308
-0.00827472
0.00360682
-0.00884532
-0.00945028
0.00384228
0.000671789
0.00107912
-0.00288246
0.00153461
-0.00411974
0.00198348
-0.00529622
0.00238852
-0.00632304
0.00273557
-0.00718446
0.00303008
-0.00789862
0.00328331
-0.00852795
0.00351465
-0.00907665
-0.00966809
0.00373245
0.00116419
-0.0033019
0.00161073
-0.00456629
0.00203247
-0.00571795
0.00240123
-0.0066918
0.00271159
-0.00749482
0.00297424
-0.00816127
0.00320257
-0.00875628
0.00341509
-0.00928917
-0.00987099
0.00361799
0.00124025
0.00167063
-0.00499666
0.00206164
-0.00610896
0.00239456
-0.00702473
0.00267136
-0.00777162
0.00290629
-0.0083962
0.00311357
-0.00896356
0.00331008
-0.00948568
-0.0100609
0.00350001
0.00171397
0.00207254
-0.00646753
0.00237126
-0.00732345
0.00261798
-0.00801834
0.002829
-0.00860722
0.00301838
-0.00915293
0.00320101
-0.00966831
-0.0102392
0.00337933
0.00206706
-0.0067934
0.00233399
-0.00759038
0.00255411
-0.00823846
0.00274457
-0.00879768
0.00291855
-0.00932692
0.00308886
-0.00983862
-0.0104068
0.00325646
0.00204728
0.00228518
-0.00782828
0.00248198
-0.00843527
0.00265471
-0.0089704
0.00281525
-0.00948746
0.00297434
-0.00999771
-0.0105643
0.00313182
0.002227
0.00240344
-0.0086117
0.00256074
-0.00912771
0.0027093
-0.00963601
0.00285794
-0.0101463
-0.0107121
0.00300566
0.00231995
0.00246368
-0.00927143
0.00260132
-0.00977365
0.00274002
-0.010285
-0.0108503
0.00287822
0.00236427
0.00249175
-0.00990113
0.00262085
-0.0104142
-0.0109791
0.00274966
0.00238092
0.00250064
-0.0105339
-0.0110985
0.00262011
0.00237954
-0.0112087
0.00248971
0.00235858
0.0112086
0.00235858
0.00226911
0.010019
0.00237957
0.0105339
0.0110985
0.00248972
0.00226308
0.00940307
0.00238095
0.00990116
0.00250066
0.0104142
0.010979
0.00262013
0.00236428
0.00927149
0.00249177
0.00977367
0.00262088
0.0102851
0.0108502
0.00274967
0.00231998
0.00861186
0.0024637
0.00912777
0.00260133
0.00963603
0.00274004
0.0101464
0.010712
0.00287824
0.00222706
0.00782858
0.00240347
0.00843545
0.00256076
0.00897048
0.00270932
0.00948748
0.00285796
0.00999771
0.0105643
0.00300569
0.00204737
0.00679382
0.00228525
0.00759071
0.00248202
0.00823868
0.00265473
0.00879778
0.00281526
0.00932694
0.00297436
0.00983862
0.0104068
0.00313184
0.00206716
0.00646796
0.00233406
0.00732381
0.00255415
0.00801858
0.00274459
0.00860734
0.00291857
0.00915296
0.00308888
0.00966831
0.0102392
0.00325649
0.00171409
0.00499711
0.00207264
0.00610941
0.00237135
0.00702511
0.00261804
0.00777189
0.00282903
0.00839635
0.00301839
0.0089636
0.00320103
0.00948567
0.0100609
0.00337935
0.00124035
0.00330225
0.00167074
0.00456672
0.00206175
0.0057184
0.00239465
0.0066922
0.00267143
0.00749512
0.00290633
0.00816145
0.00311358
0.00875634
0.0033101
0.00928916
0.00987093
0.00350004
0.00116428
0.00288278
0.00161085
0.00412016
0.00203258
0.00529667
0.00240133
0.00632346
0.00271166
0.00718479
0.00297428
0.00789883
0.00320259
0.00852803
0.00341511
0.00907664
0.00966802
0.00361802
0.000671843
0.00141926
0.00107921
0.00247542
0.00153472
0.00366464
0.0019836
0.00484779
0.00238862
0.00591843
0.00273565
0.00683776
0.00303013
0.00760435
0.00328333
0.00827483
0.00351466
0.00884532
0.00945021
0.00373247
0.000599433
0.00113465
0.000987672
0.00208718
0.00144363
0.00320869
0.00191394
0.00437748
0.00235393
0.00547844
0.00274001
0.00645169
0.00307053
0.00727382
0.00335311
0.00799225
0.00360683
0.0085916
0.00921473
0.0038423
0.000273062
0.00027112
0.000529407
0.000878306
0.000892598
0.00172399
0.00133983
0.00276146
0.00182371
0.00389359
0.00229511
0.00500705
0.00272118
0.00602561
0.00309154
0.00690346
0.0034085
0.00767529
0.00368884
0.00831126
0.00895757
0.00394601
0.000235132
0.00013407
0.000463223
0.000650214
0.000797011
0.0013902
0.00122654
0.00233193
0.0017143
0.00340583
0.00221085
0.00451051
0.00267581
0.00556065
0.00308872
0.00649055
0.00344533
0.00731868
0.00375727
0.00799932
0.00867449
0.00404035
0.000201118
1.5359e-05
0.000401906
0.000449427
0.000703699
0.00108841
0.00110764
0.00192799
0.0015885
0.00292497
0.0021012
0.00399781
0.00260115
0.0050607
0.00305751
0.00603419
0.0034585
0.0069177
0.00380722
0.00765059
0.00835536
0.00412635
6.87724e-05
-0.000279769
0.000170941
-8.68097e-05
0.00034605
0.000274318
0.000614962
0.000819496
0.000987253
0.0015557
0.00145043
0.00246179
0.00196793
0.00348031
0.00249579
0.00453284
0.00299323
0.00553675
0.00344387
0.00646706
0.00382934
0.00726512
0.0079958
0.0041889
5.69827e-05
-0.000322589
0.000144388
-0.000174215
0.000295862
0.000122844
0.000532444
0.000582915
0.000869248
0.00121889
0.00130515
0.00202589
0.00181476
0.0029707
0.00236008
0.00398751
0.00289288
0.00500395
0.00339282
0.00596712
0.00383154
0.00682639
0.00763273
0.00419461
4.6817e-05
-0.000358473
0.00012115
-0.000248548
0.000251233
-7.23891e-06
0.000457107
0.000377041
0.000756814
0.000919187
0.00115803
0.00162467
0.00164718
0.00248155
0.00219671
0.00343799
0.00275558
0.00444508
0.00329999
0.00542272
0.00380087
0.00632551
0.00723489
0.0041987
8.21655e-06
-0.000344661
3.80351e-05
-0.000388292
0.00010085
-0.000311363
0.000211813
-0.000118202
0.000389289
0.000199564
0.000652205
0.000656271
0.00101401
0.00126287
0.00147188
0.00202368
0.00201079
0.00289908
0.00258308
0.00387278
0.0031622
0.00484359
0.0037231
0.00576462
0.00678631
0.00417169
5.89716e-06
-0.000351724
3.0389e-05
-0.000412784
8.30691e-05
-0.000364043
0.000177088
-0.000212221
0.000328824
4.7829e-05
0.000556677
0.000428418
0.000877081
0.000942461
0.00129577
0.00160499
0.00180953
0.00238532
0.00238007
0.00330224
0.00298001
0.00424366
0.00359268
0.00515194
0.00628243
0.00409656
3.86187e-06
-0.000356883
2.36332e-05
-0.000432555
6.73755e-05
-0.000407786
0.000146446
-0.000291291
0.000275179
-8.0904e-05
0.000470597
0.000232999
0.000749931
0.000663127
0.00112497
0.00122996
0.00160122
0.00190906
0.00215427
0.0027492
0.00275801
0.00363992
0.0034071
0.00450285
0.00572371
0.00396582
2.00746e-06
-0.000360311
1.75354e-05
-0.000448083
5.33448e-05
-0.000443595
0.000119232
-0.000357178
0.000227591
-0.000189263
0.000393645
6.69453e-05
0.000633972
0.0004228
0.000964026
0.000899902
0.00139398
0.00147912
0.00191543
0.00222774
0.00250475
0.00305061
0.00316879
0.00383881
0.00511597
0.00377652
2.6537e-07
-0.000362145
1.18842e-05
-0.000459702
4.05805e-05
-0.000472291
9.47973e-05
-0.000411395
0.00018518
-0.000279645
0.000325031
-7.29056e-05
0.000529488
0.000218343
0.000815603
0.000613787
0.00119464
0.00110008
0.00167375
0.00174864
0.00223165
0.0024927
0.00288612
0.00318434
0.0044716
0.00353049
-1.76473e-06
-0.000165267
-1.54325e-06
-0.000362367
6.49158e-06
-0.000467737
2.87295e-05
-0.000494529
7.25386e-05
-0.000455204
0.000147046
-0.000354153
0.000263706
-0.000189566
0.00043591
4.61394e-05
0.000680627
0.00036907
0.0010082
0.000772506
0.00143812
0.00131872
0.0019512
0.00197961
0.00257276
0.00256279
0.00380952
0.00323484
-2.02607e-06
-0.000163241
-3.39687e-06
-0.000360996
1.20818e-06
-0.000472342
1.74917e-05
-0.000510813
5.19221e-05
-0.000489634
0.00011234
-0.000414571
0.000208528
-0.000285753
0.00035211
-9.74426e-05
0.000558773
0.000162407
0.000837471
0.000493809
0.0012149
0.000941287
0.00167485
0.00151967
0.00224505
0.00199259
0.00315319
0.00290138
-2.36575e-06
-0.000160875
-5.36057e-06
-0.000358001
-4.08404e-06
-0.000473618
6.62656e-06
-0.000521523
3.25012e-05
-0.000515509
8.03103e-05
-0.00046238
0.00015838
-0.000363824
0.000276695
-0.000215758
0.000448974
-9.8721e-06
0.000683245
0.000259538
0.00100774
0.000616796
0.00141143
0.00111597
0.00191863
0.00148539
0.0025269
0.00254492
-2.79236e-06
-0.000158083
-7.47188e-06
-0.000353321
-9.46914e-06
-0.000471621
-4.04631e-06
-0.000526946
1.39243e-05
-0.00053348
5.03294e-05
-0.000498785
0.000112261
-0.000425755
0.00020824
-0.000311737
0.000349807
-0.000151438
0.000544649
6.46947e-05
0.000818005
0.000343441
0.0011664
0.000767577
0.00160553
0.00104626
0.00195142
0.002181
-3.30925e-06
-0.000154774
-9.74893e-06
-0.000346882
-1.49975e-05
-0.000466372
-1.46495e-05
-0.000527294
-4.06565e-06
-0.000544064
2.19087e-05
-0.00052476
6.93331e-05
-0.00047318
0.00014545
-0.000387853
0.000259745
-0.000265734
0.000419825
-9.53845e-05
0.000645554
0.000117711
0.000941913
0.000471218
0.0013131
0.00067508
0.00144088
0.00182363
-3.91485e-06
-0.000150859
-1.21941e-05
-0.000338602
-2.06884e-05
-0.000457878
-2.52473e-05
-0.000522735
-2.16349e-05
-0.000547676
-5.3058e-06
-0.000541089
2.89476e-05
-0.000507433
8.72437e-05
-0.000446149
0.000177337
-0.000355827
0.000306602
-0.000224649
0.000489291
-6.49778e-05
0.000737591
0.000222918
0.0010445
0.000368174
0.0010017
0.00148368
-4.60311e-06
-0.000146256
-1.4796e-05
-0.00032841
-2.65333e-05
-0.000446141
-3.58576e-05
-0.000513411
-3.88689e-05
-0.000544665
-3.15257e-05
-0.000548432
-9.35293e-06
-0.000529606
3.27682e-05
-0.000488271
0.000101338
-0.000424396
0.000202986
-0.000326297
0.000347618
-0.00020961
0.000551659
1.88776e-05
0.000800099
0.000119733
0.000633717
0.00116808
-5.36398e-06
-0.000140892
-1.75311e-05
-0.000316243
-3.24999e-05
-0.000431172
-4.6456e-05
-0.000499455
-5.57833e-05
-0.000535337
-5.68758e-05
-0.000547339
-4.58972e-05
-0.000540585
-1.84918e-05
-0.000515676
3.09149e-05
-0.000473803
0.000107334
-0.000402716
0.000218798
-0.000321075
0.000381939
-0.000144263
0.00057882
-7.71478e-05
0.000332515
0.000880022
-6.18406e-06
-0.000134708
-2.03659e-05
-0.000302061
-3.85363e-05
-0.000413002
-5.69833e-05
-0.000481008
-7.23358e-05
-0.000519985
-8.13659e-05
-0.000538309
-8.07685e-05
-0.000541182
-6.67843e-05
-0.00052966
-3.52306e-05
-0.000505357
1.78404e-05
-0.000455787
0.000101391
-0.000404626
0.000226438
-0.00026931
0.000379022
-0.000229732
9.18188e-05
0.000619718
-7.04721e-06
-0.000127661
-2.32591e-05
-0.000285849
-4.45748e-05
-0.000391686
-6.73535e-05
-0.000458229
-8.84382e-05
-0.0004989
-0.000104936
-0.000521812
-0.000114006
-0.000532112
-0.000112486
-0.00053118
-9.72137e-05
-0.000520629
-6.31311e-05
-0.00048987
-4.13398e-06
-0.000463623
8.30649e-05
-0.000356509
0.000199067
-0.000345734
-9.45256e-05
0.000385411
-7.93525e-06
-0.000119725
-2.61633e-05
-0.000267621
-5.05367e-05
-0.000367313
-7.74606e-05
-0.000431305
-0.000103969
-0.000472392
-0.000127468
-0.000498312
-0.000145528
-0.000514052
-0.000155515
-0.000521192
-0.000154914
-0.00052123
-0.000138959
-0.000505825
-0.000107343
-0.000495238
-4.68487e-05
-0.000417003
3.87272e-05
-0.000431309
-0.000229974
0.000174175
-8.8286e-06
-0.000110897
-2.90275e-05
-0.000247422
-5.63358e-05
-0.000340004
-8.71857e-05
-0.000400455
-0.000118782
-0.000440796
-0.000148803
-0.000468291
-0.000175184
-0.000487672
-0.000195757
-0.000500619
-0.00020852
-0.000508468
-0.000209413
-0.000504932
-0.000199225
-0.000505426
-0.00016238
-0.000453848
-0.0001138
-0.00047989
-0.000325475
-1.82987e-05
-9.70698e-06
-0.00010119
-3.17985e-05
-0.00022533
-6.1882e-05
-0.000309921
-9.64028e-05
-0.000365934
-0.00013272
-0.000404479
-0.000168758
-0.000432253
-0.000202776
-0.000453654
-0.000233022
-0.000470373
-0.000257911
-0.000483579
-0.00027414
-0.000488703
-0.000282623
-0.000496943
-0.000269277
-0.000467194
-0.00025108
-0.000498086
-0.000390609
-0.000185947
-1.05501e-05
-9.06398e-05
-3.44232e-05
-0.000201457
-6.70851e-05
-0.000277259
-0.000104985
-0.000328035
-0.000145619
-0.000363844
-0.000187134
-0.000390738
-0.000228079
-0.000412708
-0.000267068
-0.000431385
-0.000302866
-0.00044778
-0.000332891
-0.000458678
-0.000357851
-0.000471982
-0.000366192
-0.000458854
-0.000372931
-0.000491348
-0.000423592
-0.000339947
-1.1338e-05
-7.93018e-05
-3.68499e-05
-0.000175945
-7.18576e-05
-0.000242251
-0.000112806
-0.000287086
-0.000157317
-0.000319334
-0.000203733
-0.000344322
-0.00025086
-0.000365581
-0.000297629
-0.000384616
-0.000343112
-0.000402296
-0.00038536
-0.00041643
-0.000424832
-0.000432511
-0.00045263
-0.000431056
-0.000480767
-0.00046321
-0.000426287
-0.000478073
-1.20522e-05
-6.72496e-05
-3.903e-05
-0.000148967
-7.61171e-05
-0.000205164
-0.000119751
-0.000243452
-0.000167662
-0.000271424
-0.000218364
-0.00029362
-0.000270887
-0.000313058
-0.000324434
-0.000331069
-0.000378345
-0.000348385
-0.00043121
-0.000363566
-0.000483314
-0.000380407
-0.00052816
-0.000386209
-0.000574923
-0.000416447
-0.000401382
-0.000599828
-1.26755e-05
-5.4574e-05
-4.09194e-05
-0.000120724
-7.9789e-05
-0.000166295
-0.000125713
-0.000197528
-0.000176512
-0.000220624
-0.00023085
-0.000239283
-0.000287943
-0.000255965
-0.000347225
-0.000271787
-0.000408264
-0.000287346
-0.000470095
-0.000301735
-0.000532943
-0.000317559
-0.000592301
-0.000326852
-0.000655125
-0.000353622
-0.000352213
-0.000704294
-1.31931e-05
-4.13809e-05
-4.24795e-05
-9.14371e-05
-8.28082e-05
-0.000125966
-0.000130599
-0.000149738
-0.000183747
-0.000167476
-0.000241036
-0.000181994
-0.000301835
-0.000195166
-0.000365765
-0.000207857
-0.000432583
-0.000220527
-0.000501682
-0.000232637
-0.000573312
-0.000245929
-0.00064452
-0.000255643
-0.000720727
-0.000277416
-0.000282722
-0.000790218
-1.35925e-05
-2.77884e-05
-4.36783e-05
-6.13513e-05
-8.51206e-05
-8.45235e-05
-0.000134331
-0.000100527
-0.000189264
-0.000112544
-0.000248791
-0.000122466
-0.000312401
-0.000131556
-0.000379854
-0.000140404
-0.000451056
-0.000149324
-0.000525669
-0.000158024
-0.000604015
-0.000167582
-0.000684279
-0.00017538
-0.000770912
-0.000190782
-0.000197413
-0.000856221
-1.3864e-05
-1.39244e-05
-4.44909e-05
-3.07244e-05
-8.66848e-05
-4.23295e-05
-0.000136852
-5.036e-05
-0.000192984
-5.64121e-05
-0.000254016
-6.14336e-05
-0.000319514
-6.60581e-05
-0.000389334
-7.05849e-05
-0.000463484
-7.51744e-05
-0.000541806
-7.97026e-05
-0.000624699
-8.4689e-05
-0.00071109
-8.89889e-05
-0.000804887
-9.69853e-05
-0.000101268
-0.000901032
-1.40011e-05
-4.49006e-05
-8.74725e-05
-0.00013812
-0.000194854
-0.000256642
-0.000323088
-0.000394096
-0.000469727
-0.000549913
-0.000635102
-0.000724585
-0.000822032
-0.000923687
-0.000936948
1.33662e-05
-8.35546e-08
-0.000951153
1.42796e-05
-7.44086e-08
-0.000966004
1.49141e-05
-6.30869e-08
-0.000981383
1.54287e-05
-4.93996e-08
-0.000997241
1.58907e-05
-3.30712e-08
-0.00101356
1.63317e-05
-1.38024e-08
-0.00103034
1.677e-05
8.71621e-09
-0.00104759
1.72161e-05
3.48214e-08
-0.00106533
1.76757e-05
6.48487e-08
-0.00108358
1.81522e-05
9.91404e-08
-0.00110237
1.86476e-05
1.38035e-07
-0.00112171
1.91624e-05
1.81855e-07
-0.00114164
1.96963e-05
2.30893e-07
-0.00116217
2.02479e-05
2.85388e-07
-0.00118333
2.08141e-05
3.45505e-07
-0.00120513
2.13906e-05
4.11299e-07
-0.00122759
2.1971e-05
4.82679e-07
-0.00125069
2.25467e-05
5.59354e-07
-0.00127444
2.31064e-05
6.40781e-07
-0.0012988
2.36351e-05
7.26096e-07
-0.00132373
2.41139e-05
8.14047e-07
-0.00134915
2.45189e-05
9.02922e-07
-0.00137496
2.48202e-05
9.90492e-07
-0.00140101
2.49803e-05
1.07399e-06
-0.00142712
2.49528e-05
1.1501e-06
-0.00145301
2.4681e-05
1.21501e-06
-0.00147837
2.4096e-05
1.26455e-06
-0.00150278
2.31158e-05
1.29448e-06
-0.00152573
2.16441e-05
1.30085e-06
-0.00154658
1.9571e-05
1.28063e-06
-0.00156459
1.67758e-05
1.23239e-06
-0.00157888
1.31327e-05
1.1571e-06
-0.00158846
8.52229e-06
1.05962e-06
-0.00159224
2.83515e-06
9.46465e-07
-0.00158926
-3.77413e-06
7.92523e-07
-0.00157875
-1.11782e-05
6.68096e-07
-0.00156026
-1.90427e-05
5.47212e-07
-0.00153424
-2.64496e-05
4.33629e-07
-0.00150277
-3.17987e-05
3.25937e-07
-0.00146986
-3.31247e-05
2.17034e-07
-0.00144396
-2.60148e-05
1.10901e-07
-1.74797e-05
-1.49031e-08
-0.000913858
2.62585e-05
-0.000927677
2.80987e-05
-0.000942147
2.9384e-05
-0.000957148
3.04299e-05
-0.000972626
3.13686e-05
-0.000988558
3.22638e-05
-0.00100494
3.31532e-05
-0.00102178
3.40591e-05
-0.0010391
3.49944e-05
-0.00105692
3.59666e-05
-0.00107525
3.69802e-05
-0.00109412
3.8037e-05
-0.00111357
3.91366e-05
-0.00113359
4.02763e-05
-0.00115423
4.14507e-05
-0.00117549
4.26509e-05
-0.00119738
4.38643e-05
-0.00121991
4.50736e-05
-0.00124306
4.62557e-05
-0.00126681
4.73803e-05
-0.0012911
4.84088e-05
-0.00131587
4.92921e-05
-0.00134102
4.99689e-05
-0.0013664
5.03629e-05
-0.00139183
5.03794e-05
-0.00141705
4.99028e-05
-0.00144175
4.87937e-05
-0.00146552
4.68863e-05
-0.00148786
4.39877e-05
-0.00150817
3.98788e-05
-0.00152572
3.432e-05
-0.00153965
2.70637e-05
-0.001549
1.78749e-05
-0.00155271
6.54279e-06
-0.0015498
-6.68625e-06
-0.00153946
-2.1509e-05
-0.00152114
-3.7366e-05
-0.00149506
-5.25348e-05
-0.00146295
-6.39052e-05
-0.00142842
-6.76596e-05
-0.00140023
-5.41956e-05
-3.6882e-05
-0.000868243
3.83922e-05
-0.00088131
4.11652e-05
-0.000895034
4.31088e-05
-0.000909295
4.46906e-05
-0.00092403
4.61033e-05
-0.000939207
4.7441e-05
-0.000954817
4.87629e-05
-0.000970863
5.01053e-05
-0.000987358
5.14894e-05
-0.00100432
5.29281e-05
-0.00102177
5.44289e-05
-0.00103973
5.59953e-05
-0.00105822
5.7627e-05
-0.00107726
5.93203e-05
-0.00109688
6.10671e-05
-0.00111708
6.28546e-05
-0.00113788
6.46642e-05
-0.00115928
6.64701e-05
-0.00118126
6.82378e-05
-0.0012038
6.99226e-05
-0.00122686
7.14667e-05
-0.00125037
7.27974e-05
-0.00127422
7.38234e-05
-0.00129829
7.44315e-05
-0.00132239
7.44816e-05
-0.00134629
7.38028e-05
-0.00136969
7.21892e-05
-0.0013922
6.93969e-05
-0.00141335
6.51421e-05
-0.00143258
5.91038e-05
-0.00144919
5.09305e-05
-0.00146238
4.02585e-05
-0.00147125
2.67386e-05
-0.00147475
1.00505e-05
-0.00147194
-9.49609e-06
-0.00146195
-3.15049e-05
-0.00144401
-5.5304e-05
-0.00141794
-7.85993e-05
-0.00138488
-9.69652e-05
-0.0013475
-0.000105045
-0.00131495
-8.67451e-05
-6.02595e-05
-0.000801116
4.94465e-05
-0.000813105
5.31543e-05
-0.000825756
5.57603e-05
-0.000838947
5.78814e-05
-0.000852607
5.97636e-05
-0.000866694
6.15282e-05
-0.000881189
6.32574e-05
-0.000896088
6.5004e-05
-0.000911398
6.67997e-05
-0.000927134
6.8664e-05
-0.000943313
7.06083e-05
-0.000959956
7.26381e-05
-0.000977083
7.47538e-05
-0.000994713
7.69507e-05
-0.00101286
7.92186e-05
-0.00103155
8.15409e-05
-0.00105078
8.38932e-05
-0.00107055
8.62418e-05
-0.00109086
8.85419e-05
-0.00111167
9.07346e-05
-0.00113295
9.27448e-05
-0.00115463
9.44773e-05
-0.00117662
9.58131e-05
-0.00119879
9.66049e-05
-0.00122098
9.66711e-05
-0.00124297
9.579e-05
-0.00126447
9.36953e-05
-0.00128515
9.00716e-05
-0.00130456
8.45531e-05
-0.00132218
7.67258e-05
-0.00133739
6.61368e-05
-0.00134944
5.23149e-05
-0.0013575
3.48012e-05
-0.00136062
1.31615e-05
-0.00135786
-1.22568e-05
-0.0013483
-4.1065e-05
-0.001331
-7.26037e-05
-0.00130528
-0.000104315
-0.00127148
-0.000130765
-0.00123081
-0.000145711
-0.00119229
-0.000125273
-8.98433e-05
-0.000713822
5.91773e-05
-0.000724475
6.38068e-05
-0.000735779
6.70647e-05
-0.000747619
6.97211e-05
-0.00075992
7.20651e-05
-0.00077263
7.42382e-05
-0.000785718
7.63455e-05
-0.000799173
7.84587e-05
-0.000812995
8.0622e-05
-0.000827194
8.28627e-05
-0.000841783
8.51972e-05
-0.000856779
8.76337e-05
-0.000872198
9.01735e-05
-0.000888059
9.28116e-05
-0.000904376
9.55359e-05
-0.000921162
9.83263e-05
-0.000938422
0.000101153
-0.000956156
0.000103976
-0.000974354
0.00010674
-0.000992994
0.000109374
-0.00101203
0.000111786
-0.00103142
0.000113861