/*--------------------------------*- C++ -*----------------------------------*\
  =========                 |
  \\      /  F ield         | OpenFOAM: The Open Source CFD Toolbox
   \\    /   O peration     | Website:  https://openfoam.org
    \\  /    A nd           | Version:  7
     \\/     M anipulation  |
\*---------------------------------------------------------------------------*/
FoamFile
{
    version     2.0;
    format      ascii;
    class       volVectorField;
    location    "20";
    object      U;
}
// * * * * * * * * * * * * * * * * * * * * * * * * * * * * * * * * * * * * * //

dimensions      [0 1 -1 0 0 0 0];

internalField   nonuniform List<vector> 
8330
(
(-0.00306708 0.00139426 -8.7696e-22)
(-0.016344 0.00277834 -4.05244e-21)
(-0.037415 0.0034036 -5.63961e-21)
(-0.0587251 0.00360719 1.52953e-21)
(-0.080071 0.00358324 1.70972e-21)
(-0.100065 0.00345756 3.97942e-23)
(-0.118695 0.00329382 -3.15037e-21)
(-0.135883 0.00312114 -7.18362e-22)
(-0.151761 0.00295087 -4.57464e-21)
(-0.166343 0.00277578 -5.86803e-22)
(-0.179867 0.00262473 -4.10159e-21)
(-0.192033 0.00243617 -4.28653e-21)
(-0.203995 0.00243062 7.03174e-22)
(-0.214047 0.00223883 -2.55826e-21)
(-0.00318986 0.00413568 -7.1963e-22)
(-0.016509 0.00824088 1.57737e-20)
(-0.0374831 0.0100931 -2.69052e-21)
(-0.0586374 0.0106931 -1.97145e-21)
(-0.0797798 0.010616 -8.90655e-21)
(-0.0995339 0.0102351 4.041e-21)
(-0.117889 0.00974002 3.92974e-21)
(-0.13476 0.00921809 1.22738e-20)
(-0.15028 0.00870428 -1.76052e-21)
(-0.164444 0.00817666 -4.33564e-21)
(-0.177509 0.00772539 7.18874e-21)
(-0.189076 0.00715391 6.51318e-21)
(-0.200461 0.0071529 7.12267e-21)
(-0.209477 0.00655655 6.71444e-21)
(-0.0034329 0.00682965 9.6861e-22)
(-0.0168365 0.0136236 -2.19678e-20)
(-0.0376191 0.0166951 4.0187e-21)
(-0.058464 0.017692 -1.80029e-20)
(-0.0792013 0.0175642 -1.08702e-20)
(-0.0984785 0.01693 1.13469e-21)
(-0.116284 0.0161044 -5.3314e-22)
(-0.132524 0.015233 -1.2204e-20)
(-0.14733 0.014375 1.64886e-20)
(-0.160657 0.0134899 4.28826e-21)
(-0.172815 0.012737 2.74407e-21)
(-0.183184 0.0117437 -2.10964e-20)
(-0.193446 0.0117576 9.71209e-21)
(-0.200405 0.0106333 5.79918e-21)
(-0.0037918 0.00944586 2.5542e-21)
(-0.0173224 0.018875 -9.37191e-21)
(-0.0378225 0.0231525 4.39133e-21)
(-0.0582079 0.0245464 7.88332e-21)
(-0.0783415 0.024372 -2.26556e-21)
(-0.0969066 0.0234875 -2.2521e-20)
(-0.11389 0.0223326 2.58116e-20)
(-0.129187 0.0211112 3.12602e-20)
(-0.142926 0.0199081 3.32666e-21)
(-0.155 0.0186581 -7.21048e-21)
(-0.165817 0.0176036 1.35327e-20)
(-0.174383 0.0161257 9.36245e-21)
(-0.183037 0.0161778 -1.01177e-20)
(-0.186943 0.0143218 -3.91992e-20)
(-0.00426017 0.0119559 1.72453e-20)
(-0.0179606 0.0239455 -3.52385e-21)
(-0.0380926 0.0294097 2.22302e-20)
(-0.0578731 0.0312 -4.17264e-21)
(-0.0772087 0.0309838 2.20762e-20)
(-0.09483 0.0298528 -7.81585e-21)
(-0.110723 0.0283702 -2.03217e-20)
(-0.124767 0.0267981 -6.72154e-21)
(-0.137092 0.0252492 -1.25846e-20)
(-0.147496 0.0236251 1.71239e-20)
(-0.156558 0.0222732 -2.61177e-20)
(-0.162703 0.0202277 3.464e-20)
(-0.169344 0.0203621 -4.3377e-21)
(-0.169224 0.0174972 3.44186e-20)
(-0.00482993 0.0143337 -1.27264e-20)
(-0.0187432 0.028789 3.2265e-20)
(-0.0384282 0.0354132 -2.49529e-20)
(-0.0574647 0.0375975 1.58501e-20)
(-0.0758134 0.0373446 1.41876e-20)
(-0.0922635 0.0359713 2.2682e-20)
(-0.106801 0.0341625 2.19556e-20)
(-0.119285 0.0322392 -1.63684e-20)
(-0.129852 0.0303439 4.66689e-21)
(-0.138166 0.0283359 -2.87881e-20)
(-0.145085 0.0266983 1.70961e-20)
(-0.14816 0.0239877 -4.17662e-20)
(-0.152476 0.0242767 -1.95184e-21)
(-0.147364 0.0200676 -1.24908e-20)
(-0.00549152 0.0165566 -3.29471e-21)
(-0.0196608 0.0333627 1.11535e-21)
(-0.0388275 0.0411123 2.98692e-20)
(-0.0569882 0.0436853 -1.2964e-20)
(-0.0741672 0.0434001 -1.82128e-20)
(-0.0892235 0.0417887 -3.05674e-20)
(-0.102145 0.0396553 -1.643e-20)
(-0.112764 0.0373798 -4.66543e-21)
(-0.121235 0.0351379 3.46717e-20)
(-0.127029 0.0327369 4.54221e-21)
(-0.131443 0.0308333 4.19609e-21)
(-0.130745 0.0273562 6.01883e-20)
(-0.132508 0.0279021 -5.09421e-21)
(-0.121408 0.021988 1.10579e-20)
(-0.00623439 0.0186052 -4.57196e-22)
(-0.0207026 0.0376284 -7.22183e-21)
(-0.0392884 0.0464596 -3.84047e-21)
(-0.0564491 0.0494117 -2.32876e-20)
(-0.0722823 0.0490972 -1.21643e-20)
(-0.085727 0.0472513 4.48808e-20)
(-0.096774 0.0447944 -1.63348e-20)
(-0.105224 0.0421656 -7.06432e-21)
(-0.111263 0.0395767 -2.66825e-21)
(-0.11409 0.0367759 -2.1783e-20)
(-0.115662 0.0346317 -1.74795e-20)
(-0.110413 0.0302973 -4.82423e-20)
(-0.109461 0.0312179 -3.65614e-20)
(-0.0912842 0.0232948 2.44002e-20)
(-0.00704729 0.0204642 -1.91193e-20)
(-0.0218567 0.0415531 3.49531e-20)
(-0.0398077 0.0514113 8.06148e-21)
(-0.0558523 0.0547277 2.7988e-20)
(-0.0701702 0.0543842 1.51255e-21)
(-0.0817894 0.0523061 -4.68129e-21)
(-0.0907068 0.0495261 -3.37282e-21)
(-0.0966797 0.0465429 7.0225e-20)
(-0.0999511 0.0436057 -7.81967e-20)
(-0.0993392 0.0404036 3.39108e-21)
(-0.0977501 0.0380438 6.98422e-21)
(-0.0870811 0.0327958 3.55012e-20)
(-0.08326 0.0341534 -4.39615e-20)
(-0.0567715 0.0241977 2.09098e-20)
(-0.0079188 0.0221225 -4.19884e-20)
(-0.0231106 0.0451088 -1.46178e-20)
(-0.0403811 0.0559283 2.78506e-21)
(-0.0552011 0.0595869 8.69734e-21)
(-0.0678401 0.059211 -5.76727e-20)
(-0.0774228 0.0569014 1.80021e-20)
(-0.0839545 0.0537975 -1.5356e-20)
(-0.0871378 0.0504589 -4.80778e-20)
(-0.087299 0.0471702 3.43729e-20)
(-0.0827393 0.0435763 1.92163e-20)
(-0.0776688 0.0410076 1.39238e-20)
(-0.0606475 0.0348994 6.17592e-20)
(-0.05367 0.0364921 6.79754e-20)
(-0.0175936 0.025108 -1.92529e-20)
(-0.00883769 0.0235734 4.72001e-20)
(-0.0244509 0.0482737 -4.62898e-20)
(-0.0410029 0.059976 3.81498e-20)
(-0.0544963 0.0639465 -6.09064e-20)
(-0.0652969 0.06353 6.7056e-22)
(-0.0726325 0.0609872 -5.52179e-20)
(-0.0765184 0.0575576 -1.81142e-20)
(-0.076587 0.0538633 3.97278e-20)
(-0.0732799 0.0502166 4.9447e-20)
(-0.064223 0.0462613 3.13452e-20)
(-0.0552815 0.0433975 2.49462e-22)
(-0.0310373 0.0367931 -8.09556e-20)
(-0.0202979 0.0379682 3.73071e-20)
(0.026287 0.0260298 -3.48692e-20)
(-0.00979338 0.0248144 -1.66426e-20)
(-0.025864 0.0510315 -3.29378e-20)
(-0.0416652 0.0635249 -4.34571e-20)
(-0.0537347 0.0677676 9.21198e-20)
(-0.0625395 0.0672968 6.90113e-20)
(-0.0674141 0.0645163 4.71788e-20)
(-0.0683842 0.0607579 6.42108e-20)
(-0.0649929 0.0567091 -4.0409e-20)
(-0.0578273 0.052693 -7.35055e-20)
(-0.043707 0.0484562 -7.27194e-20)
(-0.0302714 0.0449711 6.62545e-20)
(0.00195244 0.0385927 4.58845e-20)
(0.0170096 0.0388992 -4.16254e-20)
(0.0765669 0.0267892 -9.32888e-21)
(-0.0107763 0.0258473 5.19232e-20)
(-0.0273359 0.0533721 5.09405e-20)
(-0.0423574 0.0665512 -2.13556e-20)
(-0.0529076 0.0710159 5.90348e-20)
(-0.0595574 0.0704704 -3.3614e-20)
(-0.0617489 0.0674449 -6.3203e-20)
(-0.0595153 0.0633542 -3.46752e-20)
(-0.0522898 0.0589561 2.67843e-20)
(-0.0408089 0.0545467 4.42813e-20)
(-0.0211065 0.0501923 -5.7161e-21)
(-0.00234538 0.0458074 -3.2213e-20)
(0.03914 0.0400049 -5.68279e-20)
(0.0582415 0.0396456 -5.48843e-22)
(0.134406 0.0274681 2.82077e-20)
(-0.0117781 0.0266776 -1.7231e-20)
(-0.0288522 0.0552911 3.34599e-20)
(-0.0430656 0.0690365 4.98394e-20)
(-0.051999 0.0736621 -7.79038e-20)
(-0.0563279 0.0730148 1.1908e-19)
(-0.0555985 0.0697343 3.74825e-20)
(-0.0498451 0.0653087 6.70997e-20)
(-0.0383737 0.0605753 -5.6169e-20)
(-0.0220108 0.0557454 7.53326e-20)
(0.00390012 0.0514124 6.75433e-20)
(0.0286288 0.0461438 -1.69053e-20)
(0.0812958 0.0409254 -3.73657e-20)
(0.103962 0.039972 3.57555e-20)
(0.20076 0.0285395 4.66192e-21)
(-0.012792 0.0273145 -4.80098e-20)
(-0.030398 0.0567896 1.41662e-20)
(-0.0437711 0.0709688 2.49598e-20)
(-0.0509835 0.0756828 2.97701e-20)
(-0.0528121 0.0748998 -8.61372e-20)
(-0.0488995 0.0713525 -9.29887e-21)
(-0.0392657 0.0665912 -1.67786e-20)
(-0.023082 0.0615435 7.94998e-20)
(-0.0011929 0.0563 -1.57119e-20)
(0.0317869 0.0520577 4.14361e-20)
(0.0631759 0.0459169 -1.51182e-20)
(0.129033 0.0417823 7.31179e-20)
(0.154986 0.0396095 -1.45428e-20)
(0.276477 0.0303625 -2.78974e-20)
(-0.0138129 0.0277699 8.03335e-21)
(-0.0319576 0.0578738 6.09295e-20)
(-0.0444496 0.0723418 -3.59075e-20)
(-0.0498236 0.0770612 2.94662e-20)
(-0.0489509 0.0761026 -3.76384e-20)
(-0.0415565 0.072276 1.08731e-20)
(-0.027622 0.0671845 -4.62414e-20)
(-0.00616611 0.0618497 -4.09454e-20)
(0.0219885 0.0562408 -1.30766e-19)
(0.0630416 0.0522409 -9.39211e-20)
(0.102101 0.0450465 -5.67246e-20)
(0.182992 0.0429797 -1.14933e-19)
(0.212396 0.0385654 -3.43028e-20)
(0.361971 0.0332052 -5.47097e-22)
(-0.0148372 0.028058 -5.53119e-20)
(-0.033514 0.0585542 -1.46039e-19)
(-0.0450698 0.0731554 -6.97766e-20)
(-0.0484669 0.0777877 -9.54695e-20)
(-0.0446597 0.076609 9.78568e-20)
(-0.033434 0.0724927 -1.53519e-20)
(-0.0147019 0.0670879 -1.86121e-20)
(0.0127019 0.0615122 -9.41366e-20)
(0.0480248 0.0555995 1.23511e-19)
(0.0982493 0.0521207 4.82786e-20)
(0.146403 0.0436466 7.10739e-20)
(0.243693 0.0448047 1.67873e-20)
(0.277597 0.0372224 9.83428e-20)
(0.456824 0.0372879 -5.43174e-20)
(-0.0158628 0.0281946 6.535e-20)
(-0.0350484 0.0588454 -2.30843e-20)
(-0.0455914 0.0734158 -6.72697e-20)
(-0.0468436 0.0778608 -4.99129e-21)
(-0.0398239 0.0764154 1.48156e-20)
(-0.0243488 0.0720039 5.95136e-20)
(-0.000220507 0.0663196 5.04726e-21)
(0.0339409 0.0605831 2.63741e-20)
(0.0775365 0.0544589 -1.49504e-19)
(0.13811 0.0518541 1.50909e-20)
(0.19725 0.0420643 -5.63393e-22)
(0.311361 0.0473899 4.95998e-20)
(0.352099 0.0363692 -1.40514e-20)
(0.559423 0.0427908 4.65848e-20)
(-0.0168886 0.0281962 -2.09649e-20)
(-0.0365389 0.0587649 4.02518e-20)
(-0.045964 0.0731346 1.59707e-19)
(-0.0448625 0.0772878 6.90202e-20)
(-0.0342932 0.0755303 -3.80292e-20)
(-0.0140628 0.0708289 -6.94253e-21)
(0.0161869 0.0649223 -6.47701e-20)
(0.0580735 0.0591486 8.91694e-20)
(0.111258 0.0529731 7.6068e-20)
(0.183403 0.0515956 -7.84691e-20)
(0.255839 0.0408916 -1.4335e-20)
(0.385851 0.0506886 1.82795e-20)
(0.436959 0.0370622 -6.02978e-20)
(0.666777 0.0498431 -4.84221e-20)
(-0.0179144 0.0280794 -1.91119e-20)
(-0.03796 0.058332 -9.09138e-21)
(-0.0461248 0.07233 1.72233e-20)
(-0.0424087 0.0760857 -7.26269e-20)
(-0.027877 0.0739768 5.88241e-21)
(-0.0022768 0.0690078 -1.05327e-19)
(0.03497 0.0629699 -2.74823e-21)
(0.0857256 0.0573362 -6.7104e-20)
(0.150009 0.0513776 -1.98763e-20)
(0.234927 0.0515056 5.0465e-20)
(0.323083 0.0408957 -5.70116e-20)
(0.46667 0.0545904 -1.29199e-19)
(0.531997 0.0402834 7.70973e-20)
(0.774709 0.0584594 1.05099e-19)
(-0.0189399 0.0278595 -1.64241e-20)
(-0.0392803 0.0575667 -9.62512e-21)
(-0.0459973 0.0710259 2.24261e-20)
(-0.03934 0.0742816 1.43861e-19)
(-0.0203401 0.0717941 4.80352e-20)
(0.0113746 0.066605 5.29927e-20)
(0.0566632 0.0605725 1.89677e-20)
(0.117612 0.055321 1.77533e-20)
(0.194629 0.0499918 -5.06097e-22)
(0.293427 0.0517885 -3.10737e-20)
(0.399215 0.0428177 5.89017e-20)
(0.552985 0.0591232 1.6269e-20)
(0.635138 0.046558 -1.30049e-20)
(0.87846 0.0684283 -1.24381e-19)
(-0.0404617 0.0564891 -9.91202e-21)
(-0.045489 0.0692523 -1.40455e-19)
(-0.035485 0.0719132 -8.75564e-20)
(-0.0113997 0.0690397 -5.42088e-20)
(0.0273237 0.0637132 4.80438e-20)
(0.0818763 0.0578818 6.42748e-20)
(0.154501 0.0533304 1.41079e-20)
(0.245875 0.0492028 -2.79962e-20)
(0.359442 0.0527582 9.759e-20)
(0.483464 0.0471296 8.02376e-20)
(0.643489 0.0645491 2.99218e-20)
(0.742329 0.0557611 -4.02107e-20)
(0.973531 0.0792478 1.39618e-19)
(-0.0414616 0.0551235 -2.59869e-20)
(-0.0444869 0.0670399 6.1727e-20)
(-0.0306408 0.0690292 6.86284e-20)
(-0.000724443 0.065791 3.65468e-20)
(0.0460657 0.0604568 1.2465e-20)
(0.111275 0.0550951 2.93549e-20)
(0.197156 0.0516469 -4.77987e-20)
(0.304295 0.0494243 7.84084e-20)
(0.433074 0.0548651 -4.88719e-20)
(0.573968 0.0539053 -4.23139e-20)
(0.736173 0.0712217 -1.41314e-20)
(0.848212 0.0672098 -6.43041e-20)
(1.05646 0.090201 -1.21443e-19)
(-0.0422293 0.0534916 1.14971e-19)
(-0.0428607 0.064423 8.61016e-20)
(-0.0245712 0.0656906 -7.53047e-20)
(0.0120638 0.0621467 -1.32539e-20)
(0.0681483 0.0569939 -1.17216e-21)
(0.145546 0.0524574 5.27579e-20)
(0.246248 0.0506074 9.42883e-20)
(0.370072 0.0510459 -5.46155e-20)
(0.513704 0.0586176 2.50115e-20)
(0.667957 0.0628717 -7.40265e-20)
(0.828233 0.0793066 3.31483e-20)
(0.94733 0.0799407 8.8221e-20)
(1.12525 0.100546 -1.98041e-20)
(-0.0427007 0.0516091 6.95011e-20)
(-0.0404634 0.0614448 -8.43713e-20)
(-0.0170092 0.0619704 1.73679e-20)
(0.0273849 0.0582278 -2.44543e-20)
(0.0941532 0.0535185 4.19142e-20)
(0.185344 0.0502601 -6.61953e-20)
(0.30223 0.050591 7.87101e-21)
(0.442868 0.0543888 5.52541e-20)
(0.599775 0.0644042 -1.04788e-19)
(0.762106 0.0735472 8.21628e-20)
(0.916379 0.0886147 -6.65277e-20)
(1.03529 0.0930048 3.89847e-21)
(1.17943 0.109683 1.43285e-19)
(-0.0371275 0.0581514 -1.04537e-19)
(-0.00765863 0.0579529 -4.74085e-20)
(0.045691 0.054178 -8.44114e-20)
(0.124667 0.0502597 -1.1446e-19)
(0.231222 0.0488333 -4.76625e-20)
(0.365202 0.0519892 -1.96906e-20)
(0.521693 0.0596674 -1.40097e-19)
(0.688806 0.0723275 3.54924e-20)
(0.852989 0.0853466 1.34317e-21)
(0.997446 0.0986712 6.9121e-20)
(1.10942 0.105667 -5.06805e-20)
(1.21979 0.117205 1.42611e-20)
(-0.0326662 0.0545915 1.93426e-19)
(0.00380153 0.0537344 -1.96124e-20)
(0.0674527 0.050164 4.31169e-20)
(0.160242 0.04748 -5.06242e-20)
(0.283535 0.0485294 7.49887e-20)
(0.434766 0.0551529 -5.10821e-21)
(0.604854 0.066948 1.27405e-20)
(0.777709 0.0821515 5.02083e-20)
(0.937534 0.0976422 -2.31143e-20)
(1.06901 0.108938 -7.40277e-20)
(1.16873 0.117439 -6.65768e-21)
(1.24802 0.122782 -1.09022e-19)
(-0.0268758 0.0508173 -1.69819e-19)
(0.0177116 0.0494227 1.63395e-19)
(0.0931408 0.046375 2.03407e-20)
(0.201345 0.0454703 -1.24116e-20)
(0.342339 0.0496969 -1.19818e-19)
(0.50993 0.0603238 -8.29226e-20)
(0.690037 0.0761097 7.90852e-20)
(0.863292 0.0933742 2.02259e-20)
(1.01342 0.109838 1.87814e-20)
(1.12971 0.119008 1.18924e-19)
(1.21368 0.127889 -6.65098e-20)
(1.26646 0.125987 9.2285e-21)
(-0.019538 0.0468844 1.89832e-19)
(0.0344232 0.0451377 -5.79758e-20)
(0.123201 0.0430227 -3.29494e-20)
(0.248289 0.0445413 1.56101e-19)
(0.40728 0.0526398 -2.09008e-20)
(0.589096 0.067572 1.1046e-19)
(0.774571 0.0868371 -8.27793e-20)
(0.942777 0.105367 -2.3641e-20)
(1.07929 0.121468 -2.10001e-20)
(1.17918 0.12861 -1.00245e-19)
(1.24586 0.136355 5.04905e-20)
(1.27878 0.126821 -4.95386e-21)
(0.0542888 0.0410122 4.57701e-20)
(0.158026 0.0403399 4.33632e-20)
(0.301167 0.0450057 -1.07824e-19)
(0.477523 0.0575675 5.51878e-20)
(0.670174 0.0767634 5.5267e-21)
(0.855801 0.0986682 9.21588e-20)
(1.01416 0.117515 3.17265e-21)
(1.13466 0.13226 4.98293e-20)
(1.21784 0.137425 6.81526e-20)
(1.26781 0.142315 1.9875e-21)
(1.29472 0.132651 9.12379e-20)
(0.0776511 0.0371931 -8.0355e-20)
(0.197913 0.0385785 -8.11643e-20)
(0.359765 0.0471501 -5.85636e-20)
(0.551743 0.0645459 4.2709e-20)
(0.750825 0.087577 3.07861e-20)
(0.931455 0.111082 2.20392e-20)
(1.07633 0.129325 -2.84791e-20)
(1.17981 0.142082 1.59002e-20)
(1.24681 0.145066 -2.46852e-20)
(1.28371 0.147622 4.63614e-20)
(1.30283 0.136831 -5.14718e-21)
(0.243021 0.0380031 2.07969e-20)
(0.423509 0.0511952 1.21572e-19)
(0.628205 0.0734703 6.00663e-20)
(0.82876 0.0995686 1.15721e-20)
(0.999889 0.123589 -6.5764e-20)
(1.12896 0.140464 3.16868e-20)
(1.21552 0.150845 8.08412e-21)
(1.26793 0.151714 -2.6806e-20)
(1.29392 0.152073 -5.18051e-21)
(1.30673 0.140629 -8.28076e-20)
(0.29332 0.0388768 9.27276e-20)
(0.491436 0.0572526 1.33754e-20)
(0.704953 0.0840768 -5.63156e-20)
(0.902021 0.112255 1.14098e-20)
(1.06017 0.135797 -4.45119e-20)
(1.17239 0.150739 -4.26198e-21)
(1.24296 0.158586 -2.42395e-20)
(1.28264 0.157462 -1.1057e-20)
(1.29997 0.155943 -4.86674e-20)
(1.30798 0.143928 8.0291e-21)
(0.348538 0.0414367 -1.34657e-19)
(0.562239 0.0652943 -1.51538e-19)
(0.780031 0.0959912 -5.80987e-20)
(0.969155 0.125189 -6.10684e-20)
(1.11199 0.147428 1.89295e-20)
(1.20733 0.160075 -3.1539e-20)
(1.26338 0.165394 -2.49049e-20)
(1.29234 0.162473 -1.96652e-21)
(1.30294 0.159359 -2.25814e-20)
(1.30713 0.146922 5.80172e-20)
(0.634372 0.0751512 1.34813e-19)
(0.851702 0.108797 -5.15666e-20)
(1.02927 0.138006 -2.92757e-20)
(1.15555 0.158318 2.14098e-20)
(1.23476 0.168483 5.84252e-20)
(1.27804 0.171391 1.44957e-20)
(1.29819 0.166896 -2.27129e-20)
(1.30363 0.162448 1.73965e-20)
(1.30501 0.149693 -1.27053e-20)
(0.706213 0.086543 4.39237e-20)
(0.918595 0.122097 -7.66657e-22)
(1.08197 0.150438 -3.55822e-20)
(1.19142 0.168394 -2.08538e-20)
(1.25574 0.176031 3.23035e-20)
(1.28806 0.176712 1.6152e-20)
(1.30114 0.170872 2.90492e-20)
(1.30272 0.165308 5.5731e-20)
(1.30198 0.152335 -2.3428e-20)
(0.979764 0.13555 1.12756e-19)
(1.12731 0.162311 6.43666e-20)
(1.22033 0.17765 3.11509e-20)
(1.2713 0.182817 -1.11145e-19)
(1.29444 0.18149 -1.94639e-20)
(1.30194 0.174522 -1.43384e-20)
(1.30066 0.16802 -1.01415e-22)
(1.29836 0.154898 2.92068e-21)
(1.16561 0.173531 -6.74518e-20)
(1.24314 0.18613 -6.51235e-20)
(1.28241 0.188955 4.27981e-20)
(1.29799 0.185849 4.97977e-21)
(1.30117 0.177945 2.73455e-20)
(1.29781 0.170642 -8.35873e-21)
(1.29434 0.157427 1.92036e-20)
(1.19741 0.184062 8.00781e-20)
(1.2607 0.193908 1.03089e-19)
(1.28993 0.194562 -2.15104e-21)
(1.2994 0.189897 2.18615e-21)
(1.29927 0.181218 -3.18052e-20)
(1.29439 0.173218 -1.19848e-20)
(1.29004 0.159945 -3.05966e-21)
(1.27384 0.201072 -1.59304e-20)
(1.29458 0.199746 -3.84345e-20)
(1.29917 0.193726 1.57513e-20)
(1.29654 0.184401 -9.43847e-21)
(1.29058 0.175779 1.16625e-20)
(1.28555 0.162472 6.12486e-21)
(1.29696 0.204607 5.7865e-20)
(1.29772 0.197411 -1.66695e-20)
(1.29321 0.187538 1.00014e-20)
(1.28647 0.178346 -4.27778e-21)
(1.28092 0.165016 -3.04294e-22)
(1.29535 0.201009 -2.22097e-20)
(1.28944 0.190661 1.20561e-20)
(1.28213 0.180932 2.31478e-21)
(1.27617 0.167584 2.58318e-21)
(1.28534 0.193791 -8.08037e-21)
(1.27761 0.183546 -1.0766e-21)
(1.27132 0.170178 -2.22512e-21)
(1.27294 0.18619 4.02398e-23)
(1.26637 0.172797 -2.89357e-21)
(1.26133 0.175438 7.7117e-21)
(1.26132 -0.175445 3.36062e-21)
(1.28097 -0.196943 -1.4875e-21)
(1.27295 -0.186196 2.54813e-22)
(1.26637 -0.172804 -5.48096e-21)
(1.2923 -0.204569 3.25553e-20)
(1.28534 -0.193794 -8.04904e-21)
(1.27762 -0.183551 -1.75099e-21)
(1.27131 -0.170186 -3.39264e-21)
(1.29536 -0.201011 -2.10352e-20)
(1.28944 -0.190664 1.15942e-20)
(1.28213 -0.180937 -2.82749e-22)
(1.27617 -0.167592 1.40266e-21)
(1.29699 -0.20461 3.37581e-21)
(1.29773 -0.197413 -8.83083e-21)
(1.29321 -0.187541 9.03732e-21)
(1.28647 -0.178351 -6.5478e-21)
(1.28092 -0.165024 -1.05884e-21)
(1.27388 -0.201078 -8.93013e-20)
(1.2946 -0.199749 -2.59878e-20)
(1.29918 -0.193728 6.01818e-21)
(1.29654 -0.184403 -3.75456e-21)
(1.29058 -0.175784 7.73977e-21)
(1.28555 -0.16248 7.09188e-21)
(1.19748 -0.184069 1.82121e-20)
(1.26075 -0.193913 9.76888e-20)
(1.28996 -0.194565 5.2959e-21)
(1.29941 -0.189899 -4.35877e-22)
(1.29927 -0.18122 -2.40372e-20)
(1.2944 -0.173222 -1.48204e-20)
(1.29004 -0.159953 -6.67853e-21)
(1.16569 -0.173537 -6.68529e-20)
(1.24319 -0.186135 -6.589e-20)
(1.28245 -0.188958 5.91852e-20)
(1.29801 -0.18585 6.46635e-21)
(1.30118 -0.177947 2.09348e-20)
(1.29781 -0.170646 -1.40123e-21)
(1.29434 -0.157435 1.00148e-20)
(0.979846 -0.135556 -8.85989e-21)
(1.12739 -0.162316 8.77071e-20)
(1.22039 -0.177654 4.40336e-21)
(1.27134 -0.182819 -1.06206e-19)
(1.29446 -0.181491 -1.0796e-20)
(1.30195 -0.174524 -7.41802e-21)
(1.30066 -0.168024 -4.99661e-21)
(1.29836 -0.154906 3.10448e-21)
(0.706283 -0.0865448 -9.17836e-20)
(0.918675 -0.1221 -3.19176e-22)
(1.08205 -0.150441 -1.45748e-20)
(1.19148 -0.168396 2.24147e-23)
(1.25578 -0.176032 1.97747e-20)
(1.28808 -0.176712 1.65174e-20)
(1.30115 -0.170874 2.95718e-20)
(1.30272 -0.165311 5.20641e-20)
(1.30197 -0.152343 -2.32259e-20)
(0.634436 -0.0751506 1.16298e-19)
(0.851779 -0.108798 -6.38711e-20)
(1.02934 -0.138007 -1.2384e-20)
(1.15562 -0.158319 3.4547e-20)
(1.23481 -0.168483 5.87067e-20)
(1.27806 -0.171391 3.51565e-21)
(1.2982 -0.166897 -1.67603e-20)
(1.30363 -0.16245 2.18631e-20)
(1.30501 -0.149701 -2.20385e-20)
(0.348574 -0.0414332 -4.89448e-20)
(0.562296 -0.0652915 -1.77909e-19)
(0.780104 -0.0959895 -4.60378e-20)
(0.969231 -0.125188 -5.45506e-20)
(1.11205 -0.147427 1.43094e-20)
(1.20738 -0.160073 -2.54263e-20)
(1.26341 -0.165393 -1.51193e-20)
(1.29235 -0.162473 -2.89388e-21)
(1.30294 -0.159361 -2.10931e-20)
(1.30712 -0.14693 4.63811e-20)
(0.293351 -0.0388719 9.03637e-20)
(0.491487 -0.0572474 3.23468e-20)
(0.70502 -0.0840724 -7.02838e-20)
(0.902095 -0.112251 2.48916e-20)
(1.06024 -0.135793 -4.66596e-20)
(1.17244 -0.150736 -4.00059e-20)
(1.24299 -0.158584 9.21958e-21)
(1.28266 -0.157462 -1.18214e-20)
(1.29997 -0.155945 -4.98586e-20)
(1.30798 -0.143935 8.80975e-21)
(0.104839 -0.0338396 1.27263e-20)
(0.243047 -0.0379968 2.53267e-20)
(0.423553 -0.0511877 1.18949e-19)
(0.628266 -0.073463 6.62559e-20)
(0.82883 -0.099562 -2.21242e-20)
(0.999959 -0.123583 -3.91647e-20)
(1.12902 -0.140459 1.14478e-20)
(1.21556 -0.15084 -1.62218e-22)
(1.26795 -0.151712 -1.7569e-21)
(1.29392 -0.152073 -4.7405e-21)
(1.30672 -0.140637 -9.14352e-20)
(0.0776605 -0.0371886 -6.61297e-20)
(0.197934 -0.0385707 -1.13432e-19)
(0.359802 -0.0471403 -1.45502e-20)
(0.551797 -0.0645356 3.01424e-20)
(0.750891 -0.0875671 4.47404e-21)
(0.931523 -0.111072 3.26523e-20)
(1.07639 -0.129317 -2.13346e-20)
(1.17986 -0.142075 -1.79843e-20)
(1.24683 -0.145063 2.32737e-20)
(1.28371 -0.147622 2.58188e-20)
(1.30282 -0.136839 -1.66059e-20)
(0.0542959 -0.0410065 2.54103e-20)
(0.158043 -0.0403303 6.09296e-20)
(0.301197 -0.0449934 -1.19316e-19)
(0.47757 -0.0575539 4.54109e-20)
(0.670234 -0.0767499 5.32288e-21)
(0.855866 -0.0986554 1.0145e-19)
(1.01422 -0.117503 3.67158e-20)
(1.13471 -0.132251 2.10732e-20)
(1.21787 -0.13742 5.20729e-20)
(1.26782 -0.142313 3.13074e-20)
(1.29471 -0.132657 7.95498e-20)
(-0.0195378 -0.0468818 -5.4239e-20)
(0.0344279 -0.0451304 -6.9596e-20)
(0.123214 -0.043011 -2.06516e-20)
(0.248313 -0.0445263 1.71412e-19)
(0.407319 -0.0526228 -1.75426e-20)
(0.589149 -0.0675547 6.82489e-20)
(0.774632 -0.0868204 -6.46554e-20)
(0.942836 -0.105352 7.61418e-22)
(1.07933 -0.121455 -3.60587e-20)
(1.17921 -0.128602 -1.15682e-19)
(1.24587 -0.136351 7.02875e-20)
(1.27877 -0.126828 -5.90944e-21)
(-0.0268764 -0.0508133 -2.01654e-19)
(0.0177143 -0.0494133 1.92466e-19)
(0.0931491 -0.0463608 2.08228e-20)
(0.201362 -0.0454523 2.8837e-21)
(0.342369 -0.0496764 -1.16367e-19)
(0.509974 -0.0603024 -9.5979e-20)
(0.690091 -0.0760885 7.12582e-20)
(0.863347 -0.093355 2.08636e-21)
(1.01347 -0.109821 4.16895e-20)
(1.12975 -0.118996 1.02625e-19)
(1.21369 -0.127882 -4.55127e-20)
(1.26646 -0.125992 8.81754e-21)
(-0.0326677 -0.0545857 2.17979e-19)
(0.00380204 -0.0537226 -4.91321e-20)
(0.0674571 -0.0501468 3.76728e-20)
(0.160254 -0.0474586 -4.19117e-20)
(0.283558 -0.048505 9.90916e-20)
(0.434801 -0.055127 -6.13932e-21)
(0.604899 -0.0669221 -4.02271e-21)
(0.777759 -0.0821274 8.64016e-20)
(0.93758 -0.0976205 -5.41877e-20)
(1.06905 -0.108923 -6.10993e-20)
(1.16874 -0.117429 -2.60851e-20)
(1.24802 -0.122783 -9.93671e-20)
(-0.0428042 -0.0494899 -2.2241e-20)
(-0.0371298 -0.0581433 -9.48355e-20)
(-0.00766021 -0.0579382 -3.76551e-20)
(0.0456915 -0.0541574 -9.29176e-20)
(0.124673 -0.0502345 -1.30262e-19)
(0.231236 -0.0488047 -2.50657e-20)
(0.365227 -0.0519586 -1.69302e-20)
(0.52173 -0.0596363 -1.4253e-19)
(0.688849 -0.0722981 3.2053e-20)
(0.85303 -0.0853196 -4.73226e-22)
(0.997477 -0.0986509 6.14846e-20)
(1.10943 -0.105652 -4.78407e-20)
(1.21978 -0.117203 -2.90295e-21)
(-0.0427027 -0.051606 8.20608e-20)
(-0.0404665 -0.0614341 -9.15737e-20)
(-0.0170128 -0.0619523 1.70884e-20)
(0.0273817 -0.0582034 -5.26467e-21)
(0.0941529 -0.0534892 2.95026e-20)
(0.18535 -0.050227 -5.98649e-20)
(0.302246 -0.0505553 2.37412e-21)
(0.442894 -0.0543522 5.70172e-20)
(0.599808 -0.0643688 -1.05998e-19)
(0.762141 -0.0735141 4.96933e-20)
(0.916405 -0.0885888 -3.36856e-20)
(1.03531 -0.0929848 4.96833e-21)
(1.17942 -0.109678 1.28635e-19)
(-0.0422311 -0.0534867 1.2432e-19)
(-0.0428645 -0.0644093 7.857e-20)
(-0.0245767 -0.0656688 -1.07111e-19)
(0.012057 -0.0621181 1.26908e-20)
(0.0681424 -0.05696 -3.17155e-20)
(0.145544 -0.0524193 7.36677e-20)
(0.246253 -0.0505663 1.08783e-19)
(0.370087 -0.0510035 -5.62666e-20)
(0.513727 -0.0585759 2.69288e-20)
(0.667982 -0.0628319 -7.17153e-20)
(0.828253 -0.0792744 -1.6306e-21)
(0.947339 -0.0799142 8.84162e-20)
(1.12524 -0.100536 -3.3346e-21)
(-0.0414633 -0.0551164 -4.49341e-20)
(-0.0444913 -0.0670229 7.79214e-20)
(-0.0306481 -0.0690033 8.39792e-20)
(-0.00073469 -0.0657578 3.14503e-20)
(0.0460543 -0.0604179 -2.3214e-20)
(0.111265 -0.0550518 7.45958e-20)
(0.197152 -0.0516003 -7.20349e-20)
(0.304298 -0.0493758 9.888e-20)
(0.433084 -0.0548167 -6.55795e-20)
(0.573983 -0.0538583 -6.87629e-20)
(0.736184 -0.0711824 2.19855e-20)
(0.848215 -0.0671756 -9.07432e-20)
(1.05645 -0.0901855 -9.2742e-20)
(-0.0404631 -0.0564796 -3.2369e-21)
(-0.0454939 -0.0692316 -1.28792e-19)
(-0.0354939 -0.071883 -9.4395e-20)
(-0.011413 -0.0690017 -4.37023e-20)
(0.0273073 -0.0636693 2.8388e-20)
(0.0818595 -0.0578332 5.10136e-20)
(0.154486 -0.0532779 3.14656e-20)
(0.245866 -0.049148 -3.84383e-20)
(0.359438 -0.0527028 1.23758e-19)
(0.483466 -0.047075 6.42283e-20)
(0.643489 -0.0645023 4.11906e-20)
(0.742322 -0.0557182 -2.79843e-20)
(0.973512 -0.0792255 1.44222e-19)
(-0.0189404 -0.027858 2.05436e-20)
(-0.0392814 -0.0575545 2.23481e-20)
(-0.0460025 -0.0710013 2.93716e-21)
(-0.0393504 -0.0742468 1.25957e-19)
(-0.0203562 -0.0717512 3.86802e-20)
(0.0113538 -0.0665558 7.35907e-20)
(0.0566397 -0.0605183 -1.777e-20)
(0.117588 -0.0552626 3.879e-20)
(0.194608 -0.0499307 2.57517e-20)
(0.29341 -0.051726 -4.73665e-20)
(0.399203 -0.0427553 5.95774e-20)
(0.552971 -0.0590682 1.76523e-20)
(0.63512 -0.0465058 9.97008e-21)
(0.878432 -0.068398 -1.54425e-19)
(-0.0179144 -0.0280766 -2.19302e-21)
(-0.0379606 -0.0583168 2.0951e-20)
(-0.0461303 -0.0723012 -2.78235e-20)
(-0.0424203 -0.0760461 -3.85158e-20)
(-0.0278955 -0.0739288 -6.42185e-21)
(-0.00230146 -0.0689533 -1.2274e-19)
(0.0349409 -0.0629101 3.70959e-20)
(0.085694 -0.0572719 -1.01409e-19)
(0.149978 -0.0513101 -2.65003e-20)
(0.234897 -0.051436 7.99648e-20)
(0.323057 -0.0408255 -6.31165e-20)
(0.466642 -0.0545269 -1.09765e-19)
(0.531964 -0.0402219 6.79922e-20)
(0.77467 -0.0584201 1.1045e-19)
(-0.0168881 -0.028192 -2.48826e-20)
(-0.0365391 -0.0587464 4.71377e-20)
(-0.0459696 -0.0731016 1.80215e-19)
(-0.044875 -0.0772434 4.44125e-20)
(-0.0343136 -0.0754772 -5.5013e-20)
(-0.0140907 -0.0707692 2.86549e-21)
(0.0161529 -0.064857 -4.29625e-20)
(0.058035 -0.0590786 6.4147e-20)
(0.111218 -0.0528993 1.00066e-19)
(0.183361 -0.0515191 -7.6608e-20)
(0.255799 -0.040814 -8.54074e-21)
(0.385808 -0.0506163 4.98684e-21)
(0.436911 -0.0369916 -6.51673e-20)
(0.666725 -0.0497941 -6.01006e-20)
(-0.0158618 -0.0281888 7.07785e-20)
(-0.0350481 -0.0588236 -4.2478e-20)
(-0.0455971 -0.0733783 -4.59592e-20)
(-0.0468568 -0.0778116 -1.24648e-20)
(-0.0398458 -0.0763572 -9.28775e-21)
(-0.0243791 -0.071939 7.81015e-20)
(-0.000258257 -0.066249 1.58489e-20)
(0.033897 -0.0605074 1.93055e-20)
(0.0774883 -0.0543791 -1.29831e-19)
(0.138058 -0.051771 -2.05573e-20)
(0.197198 -0.0419797 -4.3564e-21)
(0.311304 -0.047309 9.62937e-20)
(0.352036 -0.0362904 -1.52416e-20)
(0.559355 -0.0427315 3.21673e-20)
(-0.0148357 -0.0280505 -3.56808e-20)
(-0.0335132 -0.0585288 -1.54826e-19)
(-0.0450753 -0.0731136 -7.88555e-20)
(-0.0484806 -0.0777336 -9.29811e-20)
(-0.0446826 -0.0765459 9.86076e-20)
(-0.033466 -0.0724228 -2.05177e-20)
(-0.0147423 -0.0670122 -4.40484e-21)
(0.0126539 -0.0614311 -1.26278e-19)
(0.0479707 -0.0555139 1.3907e-19)
(0.0981891 -0.0520316 7.20451e-20)
(0.14634 -0.0435555 4.91171e-20)
(0.243624 -0.0447158 3.72039e-20)
(0.277521 -0.0371363 7.95484e-20)
(0.456742 -0.0372185 -4.43492e-20)
(-0.0138109 -0.0277606 3.95851e-21)
(-0.0319563 -0.0578447 6.0469e-20)
(-0.044455 -0.0722954 -2.20997e-20)
(-0.0498373 -0.0770024 1.88973e-21)
(-0.0489743 -0.0760348 -3.14317e-20)
(-0.0415895 -0.0722014 8.21866e-23)
(-0.0276642 -0.0671039 -2.89528e-20)
(-0.00621683 -0.0617637 -1.72186e-20)
(0.0219302 -0.0561499 -1.2743e-19)
(0.0629756 -0.0521462 -1.2416e-19)
(0.10203 -0.0449497 -5.5772e-20)
(0.182914 -0.0428837 -9.13596e-20)
(0.21231 -0.0384731 -4.10925e-20)
(0.361876 -0.0331265 -7.70195e-21)
(-0.0127896 -0.0273033 -3.37233e-20)
(-0.0303962 -0.0567568 6.69851e-21)
(-0.0437762 -0.070918 2.22253e-20)
(-0.0509972 -0.0756193 2.40769e-20)
(-0.0528356 -0.0748274 -7.81641e-20)
(-0.0489328 -0.0712733 -1.19085e-20)
(-0.0393085 -0.0665061 -7.55738e-21)
(-0.023134 -0.0614528 9.58548e-20)
(-0.00125355 -0.0562044 -4.73331e-20)
(0.0317174 -0.051958 4.2849e-20)
(0.0631003 -0.0458154 -1.5117e-20)
(0.128949 -0.0416803 1.01001e-19)
(0.154892 -0.0395119 -3.16976e-20)
(0.276372 -0.0302761 -1.29445e-20)
(-0.0117753 -0.0266644 -4.95375e-21)
(-0.02885 -0.0552546 1.99607e-20)
(-0.0430704 -0.0689814 5.74945e-20)
(-0.0520124 -0.0735942 -8.34575e-20)
(-0.056351 -0.072938 1.27107e-19)
(-0.0556315 -0.0696509 4.06546e-20)
(-0.0498878 -0.0652193 6.57498e-20)
(-0.0384259 -0.0604804 -7.46361e-20)
(-0.0220722 -0.0556456 8.25368e-20)
(0.00382946 -0.0513082 9.19332e-20)
(0.0285507 -0.0460391 -5.36736e-20)
(0.0812097 -0.040818 -1.92615e-20)
(0.103864 -0.0398704 2.93218e-20)
(0.200651 -0.0284474 2.42358e-20)
(-0.0107732 -0.0258321 7.33486e-20)
(-0.0273334 -0.0533319 3.8186e-20)
(-0.0423618 -0.0664918 -1.67977e-20)
(-0.0529205 -0.0709438 4.26719e-20)
(-0.0595799 -0.0703896 -3.80278e-20)
(-0.061781 -0.0673576 -4.99503e-20)
(-0.059557 -0.0632611 -2.85293e-20)
(-0.052341 -0.0588575 1.78269e-20)
(-0.0408693 -0.054443 7.4837e-20)
(-0.0211765 -0.0500837 -3.50524e-20)
(-0.0024232 -0.0457008 -3.33092e-20)
(0.0390553 -0.039893 -4.39723e-20)
(0.0581433 -0.0395413 -1.0863e-20)
(0.134297 -0.0273726 4.49615e-20)
(-0.00979013 -0.0247972 -1.00061e-20)
(-0.0258612 -0.0509877 -3.59721e-20)
(-0.0416692 -0.0634615 -4.75363e-20)
(-0.053747 -0.0676915 8.80259e-20)
(-0.062561 -0.0672122 7.53539e-20)
(-0.067445 -0.0644253 4.29589e-20)
(-0.0684241 -0.0606612 7.56592e-20)
(-0.0650421 -0.056607 -3.62583e-20)
(-0.0578852 -0.0525858 -9.98673e-20)
(-0.0437752 -0.048344 -5.31066e-20)
(-0.0303452 -0.0448597 5.93961e-20)
(0.00187083 -0.0384802 5.58494e-20)