/*--------------------------------*- C++ -*----------------------------------*\
  =========                 |
  \\      /  F ield         | OpenFOAM: The Open Source CFD Toolbox
   \\    /   O peration     | Website:  https://openfoam.org
    \\  /    A nd           | Version:  7
     \\/     M anipulation  |
\*---------------------------------------------------------------------------*/
FoamFile
{
    version     2.0;
    format      ascii;
    class       volVectorField;
    location    "10";
    object      U;
}
// * * * * * * * * * * * * * * * * * * * * * * * * * * * * * * * * * * * * * //

dimensions      [0 1 -1 0 0 0 0];

internalField   nonuniform List<vector> 
6386
(
(-0.00182295 0.00153347 4.06101e-21)
(-0.00983642 0.00346382 1.42547e-20)
(-0.0247585 0.00465558 -5.30094e-21)
(-0.0427053 0.00535248 3.7553e-21)
(-0.0624909 0.00571997 -2.7358e-20)
(-0.0832765 0.00590045 -1.17833e-20)
(-0.104595 0.00601477 -2.5143e-21)
(-0.126411 0.00616517 -3.72649e-20)
(-0.148949 0.00642852 4.88284e-21)
(-0.172707 0.0068956 2.32389e-20)
(-0.00201214 0.0045841 -3.71835e-20)
(-0.0101368 0.0103723 -7.63851e-21)
(-0.0249143 0.0139563 2.27334e-20)
(-0.0425713 0.0160541 -8.52154e-20)
(-0.0619463 0.0171571 -1.0611e-20)
(-0.0822045 0.0176903 1.57185e-20)
(-0.102867 0.0180154 5.62849e-21)
(-0.123876 0.0184394 1.03218e-19)
(-0.145414 0.0191957 -7.52862e-20)
(-0.167852 0.0205525 1.26379e-20)
(-0.00238133 0.0074954 7.14929e-20)
(-0.0107275 0.0170073 -9.70602e-21)
(-0.0252271 0.0229265 3.89653e-20)
(-0.0423197 0.0264001 8.73308e-20)
(-0.0608906 0.0282228 1.78907e-19)
(-0.080114 0.0290872 -1.29582e-19)
(-0.0994867 0.029587 3.05074e-22)
(-0.118915 0.0302304 -1.00634e-19)
(-0.138498 0.0314128 1.28761e-19)
(-0.158346 0.0335681 -1.23405e-19)
(-0.00291212 0.0101846 8.11944e-21)
(-0.0115876 0.0232029 -5.83537e-21)
(-0.025698 0.0313614 4.37599e-20)
(-0.041981 0.0361663 -6.28969e-20)
(-0.0593883 0.0386802 -4.7777e-20)
(-0.0771085 0.0398397 2.28067e-19)
(-0.0946064 0.0404548 -7.00782e-20)
(-0.111736 0.0412291 -2.02726e-19)
(-0.128498 0.0427296 -6.72002e-20)
(-0.144586 0.0455392 9.15043e-20)
(-0.00357928 0.0125835 1.37075e-20)
(-0.0126879 0.0288163 5.69855e-20)
(-0.0263278 0.0390785 -1.21522e-19)
(-0.0415972 0.045148 1.42272e-19)
(-0.0575291 0.0483097 9.40373e-20)
(-0.0733333 0.0497124 -3.51266e-19)
(-0.0884371 0.0503615 2.99378e-19)
(-0.102629 0.0511466 1.81057e-19)
(-0.115831 0.0528191 6.22015e-20)
(-0.127113 0.0560943 -2.04562e-20)
(-0.00435324 0.0146422 -9.93405e-20)
(-0.0139933 0.0337353 -4.44764e-20)
(-0.027117 0.0459257 3.82087e-20)
(-0.0412177 0.0531671 -3.15733e-19)
(-0.0554203 0.0569147 1.53546e-19)
(-0.0689631 0.0584922 -3.90778e-20)
(-0.0812345 0.0590737 2.20247e-21)
(-0.0919471 0.0597209 3.48679e-20)
(-0.101002 0.0613837 -7.76483e-20)
(-0.106566 0.0648994 -4.3427e-20)
(-0.00520306 0.0163316 2.18494e-19)
(-0.015466 0.0378826 -2.46319e-20)
(-0.0280645 0.0517866 1.5014e-19)
(-0.0408938 0.0600779 5.14322e-20)
(-0.0531757 0.0643285 -4.42437e-20)
(-0.0641852 0.0659953 -3.48871e-20)
(-0.073275 0.0663892 -2.42615e-20)
(-0.0800657 0.066725 -6.72103e-20)
(-0.0845531 0.0681591 3.72479e-20)
(-0.0836073 0.0716719 2.8884e-19)
(-0.00609939 0.017644 -2.32291e-19)
(-0.0170678 0.0412184 1.49372e-19)
(-0.029166 0.0565842 -2.74947e-19)
(-0.0406716 0.0657719 3.21784e-20)
(-0.0509025 0.0704194 7.74862e-20)
(-0.0591793 0.0720737 2.85704e-19)
(-0.0648264 0.0721457 -1.33004e-19)
(-0.067346 0.0719745 2.24332e-19)
(-0.0670063 0.0729122 -1.5261e-19)
(-0.0588758 0.0762667 -1.98576e-19)
(-0.0070171 0.0185919 1.92011e-19)
(-0.018763 0.0437397 -9.18295e-20)
(-0.0304129 0.0602826 -2.25148e-19)
(-0.0405842 0.0701813 2.07883e-20)
(-0.0486858 0.0750961 -3.87157e-19)
(-0.0540919 0.0766224 -2.35854e-20)
(-0.0561126 0.0762312 1.75625e-20)
(-0.0540882 0.075346 -1.12359e-19)
(-0.0487246 0.0754236 2.60526e-19)
(-0.0330132 0.0787878 1.04918e-19)
(-0.00793737 0.0192052 -1.49831e-19)
(-0.0205198 0.0454768 -2.29598e-19)
(-0.0317886 0.062885 5.80449e-19)
(-0.0406422 0.0732796 2.13057e-19)
(-0.0465706 0.0783103 6.86045e-20)
(-0.0490063 0.0795851 1.49011e-19)
(-0.0472656 0.0785948 -1.68052e-19)
(-0.0405015 0.076817 2.64718e-20)
(-0.0297507 0.0755666 -4.25941e-19)
(-0.00642575 0.078914 4.02754e-20)
(-0.00884884 0.0195272 4.0486e-20)
(-0.0223107 0.0464876 1.12518e-19)
(-0.0332656 0.0644304 -7.59461e-19)
(-0.0408238 0.0750807 -1.05653e-19)
(-0.0445427 0.0800587 1.04304e-19)
(-0.0439101 0.0809573 -4.87e-19)
(-0.0382534 0.0792463 -1.51608e-20)
(-0.0266008 0.0764277 -1.1044e-20)
(-0.0100934 0.0735076 -1.5496e-19)
(0.0217238 0.076395 2.41506e-20)
(-0.00974765 0.0196092 -4.08948e-20)
(-0.0241117 0.04685 2.00639e-19)
(-0.0348008 0.0649867 5.02947e-19)
(-0.0410649 0.0756346 -2.42341e-19)
(-0.0425104 0.080381 1.83579e-20)
(-0.0386717 0.080787 -1.84212e-19)
(-0.0288633 0.0782739 -4.66615e-20)
(-0.0119967 0.0743112 4.40659e-19)
(0.0106111 0.0695355 3.59377e-19)
(0.052397 0.0715411 -4.55045e-20)
(-0.0106363 0.0195057 4.42399e-20)
(-0.0258997 0.0466532 8.51544e-20)
(-0.03633 0.064643 -4.48324e-19)
(-0.0412484 0.0750224 1.76394e-19)
(-0.040286 0.0793571 1.85973e-19)
(-0.0329988 0.0791752 6.44158e-19)
(-0.0186588 0.0758395 3.46363e-19)
(0.00400869 0.070731 -1.74303e-19)
(0.0334007 0.0638893 -4.62697e-20)
(0.0871389 0.0650884 -2.26669e-19)
(-0.0115216 0.0192684 2.98293e-19)
(-0.0276475 0.045987 -4.40068e-19)
(-0.0377628 0.0635013 6.65414e-19)
(-0.0411965 0.0733492 -2.31701e-19)
(-0.0375723 0.0771001 -2.30737e-19)
(-0.0264252 0.0762643 -7.18922e-19)
(-0.00692506 0.0721559 -4.69803e-19)
(0.0224561 0.0660636 2.59499e-19)
(0.0598945 0.0569922 3.88225e-19)
(0.128133 0.0581352 4.06895e-19)
(-0.0124116 0.0189411 -2.61093e-19)
(-0.0293176 0.0449334 -1.08912e-19)
(-0.0389762 0.0616698 1.47244e-20)
(-0.0406634 0.0707353 2.86477e-20)
(-0.0339566 0.073749 5.98065e-19)
(-0.0183033 0.0722336 2.38601e-20)
(0.00732234 0.0674906 4.56987e-19)
(0.0447282 0.0607434 -4.07911e-19)
(0.0922594 0.0494504 -7.96267e-19)
(0.177769 0.0521219 -3.89502e-19)
(-0.0308595 0.0435662 6.75519e-19)
(-0.0398053 0.0592484 1.03719e-20)
(-0.0393318 0.0673062 -3.58211e-19)
(-0.0289092 0.0694641 2.19849e-19)
(-0.00781397 0.0672933 -3.717e-19)
(0.0253033 0.0621516 -7.63942e-20)
(0.0724489 0.0552225 1.92443e-19)
(0.133071 0.0420338 2.43489e-19)
(0.237856 0.0486229 1.904e-19)
(-0.0322045 0.0419394 -3.33028e-19)
(-0.0400443 0.0563227 -3.03791e-19)
(-0.0368099 0.0631926 -4.1431e-20)
(-0.0217911 0.0644231 2.06895e-19)
(0.00600747 0.0616812 7.01027e-19)
(0.0484052 0.0564808 5.72608e-19)
(0.107333 0.0499219 8.33459e-20)
(0.185014 0.0358107 6.98835e-19)
(0.308512 0.0490572 3.16353e-19)
(-0.0332537 0.0400802 6.06923e-19)
(-0.0394437 0.0529687 1.50877e-19)
(-0.032638 0.0585248 6.03553e-19)
(-0.0118701 0.0588191 -2.22927e-19)
(0.0242299 0.0556665 -6.89236e-19)
(0.0780872 0.050856 -3.47397e-19)
(0.151061 0.0451868 -3.93224e-19)
(0.250385 0.0323852 -8.48467e-19)
(0.387171 0.054363 -1.06825e-19)
(-0.0377067 0.0492474 -4.07154e-19)
(-0.0262961 0.0534317 -2.64212e-19)
(0.00165406 0.0528632 -1.05637e-19)
(0.0479702 0.049555 -2.61676e-20)
(0.115748 0.045692 1.07222e-19)
(0.205223 0.0413111 1.73286e-19)
(0.330404 0.0338578 2.96743e-19)
(0.469187 0.063743 -5.04149e-19)
(-0.0344921 0.0452069 2.1095e-19)
(-0.017215 0.0480427 3.44669e-19)
(0.0196182 0.0467886 -2.26442e-19)
(0.0783211 0.0436989 5.45524e-19)
(0.162547 0.041439 -1.85234e-19)
(0.271125 0.0387619 -9.27115e-20)
(0.424048 0.0416527 1.4905e-20)
(0.551515 0.0709612 1.64903e-19)
(-0.00479295 0.0424935 -2.5426e-19)
(0.0428566 0.0408561 2.03672e-19)
(0.116271 0.038506 -1.81571e-19)
(0.219227 0.0385925 7.61043e-19)
(0.349178 0.0385083 -2.01304e-19)
(0.526066 0.0539203 4.1441e-19)
(0.63871 0.0669848 -2.00913e-19)
(0.0721582 0.0353601 -4.43489e-19)
(0.162615 0.0344451 -5.87579e-19)
(0.28605 0.0377154 -5.80696e-19)
(0.43826 0.0418443 8.00045e-20)
(0.627993 0.0647989 2.88741e-19)
(0.762571 0.067616 -7.63162e-20)
(0.108218 0.0306325 8.30965e-19)
(0.21785 0.0320304 6.24594e-19)
(0.362685 0.039405 1.23027e-19)
(0.535477 0.0493427 -3.00115e-21)
(0.731393 0.0763013 -7.64229e-20)
(0.880693 0.0823998 1.10432e-18)
(0.282038 0.0317909 -7.1683e-19)
(0.447968 0.044202 3.00158e-19)
(0.637022 0.0606895 1.37651e-19)
(0.833024 0.0902693 -9.53613e-19)
(0.981948 0.100346 -1.65627e-19)
(0.539739 0.0524438 -3.08584e-19)
(0.738737 0.0752096 3.31416e-19)
(0.92776 0.106275 2.38237e-20)
(1.06722 0.118595 -1.70308e-19)
(0.83643 0.0920922 1.15036e-19)
(1.01209 0.123342 1.0142e-19)
(1.13524 0.13616 -8.97444e-20)
(1.08398 0.14058 1.58914e-19)
(1.18762 0.152363 4.56767e-19)
(1.22645 0.167089 -1.79203e-19)
(1.14324 -0.157394 -1.10979e-19)
(1.2267 -0.167141 -7.13481e-19)
(1.08425 -0.140634 -1.14244e-19)
(1.18789 -0.152415 7.16102e-19)
(0.836677 -0.0921367 -5.65742e-19)
(1.01237 -0.123393 4.54224e-19)
(1.13551 -0.136211 -1.81469e-19)
(0.539892 -0.052471 -8.75836e-20)
(0.738955 -0.075248 9.79856e-20)
(0.928019 -0.106322 -7.15808e-20)
(1.06749 -0.118644 -4.48983e-20)
(0.282098 -0.0318079 -2.2283e-19)
(0.448087 -0.0442257 3.17228e-19)
(0.637208 -0.0607224 4.01158e-19)
(0.833263 -0.0903115 -8.58935e-19)
(0.982218 -0.100391 -3.24136e-19)
(0.108223 -0.0306483 -2.18896e-19)
(0.217888 -0.0320481 8.35235e-19)
(0.362773 -0.0394274 -9.61433e-20)
(0.535628 -0.0493713 9.16473e-21)
(0.731605 -0.0763394 3.45353e-19)
(0.880947 -0.0824392 5.54008e-19)
(0.0721543 -0.0353787 -6.45121e-19)
(0.162637 -0.0344651 -3.61168e-19)
(0.286112 -0.0377387 -6.66061e-19)
(0.438376 -0.0418708 -1.74655e-19)
(0.628174 -0.0648347 3.65447e-19)
(0.762795 -0.0676477 -5.84565e-20)
(-0.00481162 -0.0425138 9.18113e-20)
(0.042847 -0.0408785 -6.31705e-20)
(0.11628 -0.03853 9.38209e-20)
(0.219268 -0.0386188 8.51436e-19)
(0.349262 -0.0385359 -1.01779e-19)
(0.526217 -0.0539549 -1.7202e-20)
(0.638896 -0.0670123 -1.80994e-19)
(-0.0345111 -0.0452263 3.53012e-19)
(-0.017234 -0.0480669 -1.34711e-19)
(0.0196056 -0.0468159 9.28573e-20)
(0.0783225 -0.0437283 5.63546e-19)
(0.162573 -0.0414703 -5.37008e-19)
(0.271185 -0.0387941 3.94326e-19)
(0.424167 -0.0416862 -4.13607e-19)
(0.551687 -0.0709921 1.83746e-19)
(-0.0377245 -0.0492697 -6.01322e-19)
(-0.0263143 -0.0534604 -2.89255e-19)
(0.00164058 -0.0528964 1.60087e-20)
(0.0479675 -0.0495909 -5.5218e-20)
(0.115764 -0.0457298 2.45139e-19)
(0.205265 -0.0413502 -8.07376e-20)
(0.330493 -0.0338926 3.74778e-19)
(0.469339 -0.0637767 -4.88003e-19)
(-0.0332657 -0.0400961 -1.93453e-19)
(-0.0394602 -0.0529946 6.57085e-19)
(-0.0326549 -0.0585588 2.84637e-19)
(-0.0118829 -0.0588589 8.63719e-20)
(0.0242261 -0.0557098 -7.37532e-19)
(0.078098 -0.0509013 -5.63516e-19)
(0.151093 -0.0452335 -3.82576e-19)
(0.25045 -0.0324249 -7.5768e-19)
(0.387301 -0.054399 -3.72583e-19)
(-0.032216 -0.0419576 -4.88067e-19)
(-0.0400596 -0.0563528 -1.53795e-19)
(-0.036825 -0.0632324 7.09673e-20)
(-0.0218022 -0.06447 -6.08682e-20)
(0.00600433 -0.0617325 9.31115e-19)
(0.0484142 -0.0565342 4.77101e-19)
(0.107359 -0.0499764 2.48927e-19)
(0.185063 -0.0358574 4.64341e-19)
(0.308619 -0.0490963 1.57422e-19)
(-0.013317 -0.018564 -9.53877e-20)
(-0.0308706 -0.0435871 6.35668e-19)
(-0.0398196 -0.0592833 -4.20825e-20)
(-0.0393452 -0.0673524 -2.4654e-19)
(-0.0289182 -0.0695184 1.17368e-19)
(-0.00781531 -0.0673526 -1.48941e-19)
(0.0253126 -0.0622132 -3.89453e-19)
(0.0724728 -0.0552844 1.52535e-19)
(0.133111 -0.0420883 4.76269e-19)
(0.237945 -0.0486665 2.29615e-20)
(-0.0124158 -0.0189491 -1.24106e-19)
(-0.0293286 -0.0449577 -2.13539e-19)
(-0.0389895 -0.0617098 -2.21294e-19)
(-0.0406751 -0.0707881 1.24421e-19)
(-0.0339634 -0.0738108 4.35446e-19)
(-0.0183024 -0.0723009 4.51262e-19)
(0.00733316 -0.06756 1.58696e-19)
(0.0447518 -0.0608123 -5.21339e-19)
(0.0922958 -0.0495121 -4.40162e-19)
(0.177843 -0.0521708 -4.78384e-19)
(-0.0115261 -0.0192778 3.63995e-19)
(-0.0276585 -0.0460153 -4.55847e-19)
(-0.0377753 -0.0635469 3.0094e-19)
(-0.0412068 -0.0734089 2.65023e-19)
(-0.0375772 -0.0771694 -5.89485e-19)
(-0.0264222 -0.0763391 -5.13606e-19)
(-0.00691248 -0.0722325 -6.1808e-19)
(0.0224803 -0.0661388 2.29428e-19)
(0.0599297 -0.0570603 2.38305e-19)
(0.128197 -0.0581898 6.77321e-19)
(-0.0106411 -0.0195169 -2.6061e-19)
(-0.0259108 -0.0466857 1.09427e-19)
(-0.036342 -0.0646945 -3.46356e-19)
(-0.0412576 -0.0750889 2.8058e-19)
(-0.0402893 -0.0794336 4.14828e-20)
(-0.0329942 -0.079257 7.99541e-19)
(-0.0186447 -0.0759226 3.75797e-19)
(0.00403357 -0.0708116 -1.98465e-19)
(0.0334357 -0.0639625 -8.1092e-20)
(0.0871958 -0.0651483 6.27237e-21)
(-0.0097527 -0.0196223 -1.15146e-19)
(-0.0241229 -0.0468869 2.88069e-19)
(-0.0348123 -0.0650443 3.64757e-19)
(-0.0410731 -0.0757079 -3.83997e-20)
(-0.0425126 -0.0804643 -3.57654e-19)
(-0.0386659 -0.0808752 -2.5263e-21)
(-0.0288482 -0.0783627 1.171e-19)
(-0.0119715 -0.0743965 2.3078e-19)
(0.0106459 -0.0696128 4.36963e-19)
(0.0524494 -0.0716059 -1.27595e-20)
(-0.00885413 -0.0195424 -4.13108e-20)
(-0.0223219 -0.0465291 2.10853e-20)
(-0.0332768 -0.064494 -5.64673e-19)
(-0.0408313 -0.0751604 -2.19911e-19)
(-0.044544 -0.0801484 7.99272e-20)
(-0.0439036 -0.0810512 -5.1724e-19)
(-0.0382379 -0.0793398 2.55053e-19)
(-0.0265759 -0.0765171 -3.38147e-19)
(-0.0100592 -0.073588 -1.53771e-19)
(0.0217726 -0.0764642 2.39906e-19)
(-0.00794279 -0.0192226 -1.11624e-19)
(-0.0205309 -0.045523 -1.76594e-19)
(-0.0317993 -0.0629545 5.97443e-19)
(-0.0406491 -0.0733655 8.80439e-20)
(-0.0465714 -0.0784058 3.9142e-19)
(-0.0489995 -0.0796841 -4.43025e-20)
(-0.0472503 -0.0786924 -8.00245e-20)
(-0.0404773 -0.0769096 -1.04771e-19)
(-0.0297177 -0.0756495 -4.11526e-19)
(-0.00637993 -0.0789873 -9.37607e-20)
(-0.00702253 -0.0186115 1.43784e-19)
(-0.0187739 -0.0437906 -1.9976e-19)
(-0.0304231 -0.0603578 -2.72223e-20)
(-0.0405907 -0.070273 -5.59638e-20)
(-0.0486863 -0.0751968 -3.70463e-19)
(-0.0540852 -0.0767259 -1.03491e-21)
(-0.0560981 -0.0763324 -1.05695e-19)
(-0.0540651 -0.0754412 5.64116e-20)
(-0.0486942 -0.0755089 2.55451e-19)
(-0.032969 -0.0788626 7.66253e-20)
(-0.00610468 -0.0176657 -2.64883e-19)
(-0.0170782 -0.0412737 2.14629e-19)
(-0.0291757 -0.0566647 -2.66441e-19)
(-0.0406776 -0.0658689 1.36509e-20)
(-0.0509028 -0.0705248 1.46718e-20)
(-0.059173 -0.0721811 3.44031e-19)
(-0.0648129 -0.0722501 -6.85021e-20)
(-0.0673248 -0.0720722 -1.87499e-20)
(-0.0669782 -0.0729999 9.29871e-20)
(-0.0588357 -0.0763413 -4.33896e-19)
(-0.00520807 -0.0163554 2.83145e-19)
(-0.0154756 -0.037942 -1.56633e-19)
(-0.0280733 -0.0518719 1.58303e-19)
(-0.0408992 -0.0601795 8.8571e-20)
(-0.0531759 -0.064438 3.45788e-20)
(-0.0641795 -0.0661061 -8.2303e-20)
(-0.0732628 -0.0664963 -1.12672e-19)
(-0.0800467 -0.0668249 -1.23293e-19)
(-0.0845277 -0.0682488 2.21663e-19)
(-0.0835722 -0.071748 1.62626e-19)
(-0.0043578 -0.0146679 -7.39045e-20)
(-0.014002 -0.0337984 3.81166e-20)
(-0.0271249 -0.0460153 2.20745e-20)
(-0.0412224 -0.0532729 -2.84853e-19)
(-0.0554205 -0.0570278 5.68905e-20)
(-0.0689581 -0.0586059 5.68882e-20)
(-0.0812239 -0.0591831 -1.19168e-19)
(-0.0919306 -0.0598226 6.25385e-20)
(-0.100979 -0.0614749 -5.10184e-20)
(-0.106536 -0.0649774 -1.06676e-19)
(-0.00358324 -0.0126109 -6.01874e-20)
(-0.0126953 -0.0288827 2.23914e-20)
(-0.0263345 -0.0391718 -4.78857e-20)
(-0.0416012 -0.0452573 1.55482e-19)
(-0.0575293 -0.0484257 -3.36152e-20)
(-0.0733291 -0.0498285 -2.40989e-19)
(-0.0884283 -0.0504728 1.53474e-19)
(-0.102615 -0.0512498 2.66357e-19)
(-0.115813 -0.0529115 8.71477e-20)
(-0.127088 -0.0561736 -2.26433e-21)
(-0.00291536 -0.0102135 -1.76715e-20)
(-0.0115936 -0.023272 6.24183e-20)
(-0.0257034 -0.0314577 -1.23703e-19)
(-0.0419842 -0.0362783 4.59104e-20)
(-0.0593885 -0.0387986 -7.66239e-20)
(-0.0771052 -0.0399577 1.95158e-19)
(-0.0945994 -0.0405677 -1.052e-19)
(-0.111725 -0.0413335 -9.56232e-20)
(-0.128483 -0.0428231 -1.54308e-19)
(-0.144566 -0.0456195 1.44673e-19)
(-0.00238372 -0.00752532 6.62297e-20)
(-0.0107319 -0.0170786 -3.21621e-20)
(-0.025231 -0.0230252 5.58948e-20)
(-0.0423221 -0.0265143 7.60954e-20)
(-0.0608908 -0.028343 1.71141e-19)
(-0.0801116 -0.0292066 -1.28852e-19)
(-0.0994817 -0.0297009 3.41008e-20)
(-0.118907 -0.0303357 -1.08092e-19)
(-0.138487 -0.0315072 1.03417e-19)
(-0.158332 -0.0336493 -9.471e-20)
(-0.00201361 -0.00461477 -2.17961e-20)
(-0.0101395 -0.0104449 7.49813e-21)
(-0.0249167 -0.0140566 8.68868e-21)
(-0.0425727 -0.0161698 -6.36463e-20)
(-0.0619464 -0.0172786 -3.44576e-20)
(-0.0822031 -0.0178107 3.61309e-20)
(-0.102863 -0.0181301 5.88243e-21)
(-0.123872 -0.0185454 1.1406e-19)
(-0.145407 -0.0192906 -8.82909e-20)
(-0.167843 -0.0206341 -2.93762e-20)
(-0.00182345 -0.00156452 -3.68029e-21)
(-0.00983733 -0.00353719 1.17232e-20)
(-0.0247594 -0.00475663 -7.32408e-21)
(-0.0427058 -0.00546883 5.666e-21)
(-0.0624909 -0.00584199 -2.71996e-20)
(-0.083276 -0.0060213 -6.60216e-21)
(-0.104594 -0.00612988 -8.6622e-21)
(-0.126409 -0.00627147 -2.77798e-20)
(-0.148947 -0.00652369 -2.02546e-21)
(-0.172704 -0.00697748 3.06605e-20)
(-0.195429 0.00761414 -1.51626e-21)
(-0.217262 0.00777042 5.90027e-21)
(-0.239932 0.00785184 1.40575e-22)
(-0.263595 0.00789886 -6.376e-21)
(-0.288149 0.00790619 7.42916e-21)
(-0.313491 0.00786456 -2.57599e-22)
(-0.339465 0.0077614 -1.29653e-21)
(-0.365854 0.00758451 -1.47953e-21)
(-0.392376 0.00732226 1.27026e-21)
(-0.41868 0.00696378 2.96578e-21)
(-0.444337 0.00649909 -3.15539e-21)
(-0.468839 0.00591918 -9.04742e-22)
(-0.491593 0.00521591 1.04074e-21)
(-0.511913 0.00438142 6.9802e-22)
(-0.529044 0.00340907 -7.11532e-22)
(-0.542129 0.00229934 1.50622e-22)
(-0.550066 0.00104652 -3.05991e-21)
(-0.551716 -0.000354118 1.5144e-21)
(-0.545951 -0.00190656 1.26666e-21)
(-0.531545 -0.00357665 -1.91366e-21)
(-0.5073 -0.005316 2.74393e-21)
(-0.472282 -0.00704656 -3.20402e-22)
(-0.426082 -0.00866144 -3.14973e-21)
(-0.368967 -0.0100388 1.75928e-21)
(-0.302035 -0.0110779 5.45607e-22)
(-0.227068 -0.0117241 -9.43564e-22)
(-0.146219 -0.0119719 2.03707e-22)
(-0.0618815 -0.0118478 1.07096e-22)
(0.0235875 -0.0114435 -8.54344e-23)
(0.10853 -0.010785 8.66005e-23)
(0.190368 -0.0100197 -1.65958e-22)
(0.269752 -0.00911035 -4.5381e-22)
(0.342312 -0.00824981 1.57708e-23)
(0.413304 -0.00730911 4.00112e-22)
(0.473619 -0.00653722 -1.02128e-22)
(0.536538 -0.00568259 -1.94e-22)
(0.583333 -0.00509631 1.78261e-22)
(0.641061 -0.00435861 -2.15799e-22)
(0.67339 -0.00398536 2.62591e-22)
(0.730756 -0.00335934 3.05079e-22)
(0.747001 -0.00318929 5.1859e-23)
(0.810728 -0.00270714 1.68673e-23)
(-0.189551 0.0226549 -4.19767e-20)
(-0.21084 0.0231176 1.81304e-20)
(-0.232853 0.023357 4.38035e-21)
(-0.255858 0.0234908 1.71647e-20)
(-0.279745 0.0235036 -9.66488e-21)
(-0.304404 0.0233691 1.80897e-21)
(-0.329679 0.0230501 -1.09179e-20)
(-0.355353 0.0225105 -3.15692e-21)
(-0.381143 0.0217159 -2.93418e-21)
(-0.406701 0.0206341 -3.94266e-21)
(-0.431601 0.0192354 2.80419e-20)
(-0.455342 0.0174931 -3.73383e-20)
(-0.477335 0.015383 6.2948e-21)
(-0.496907 0.012882 2.55014e-20)
(-0.51331 0.0099701 -2.25525e-20)
(-0.525706 0.00664648 -1.99876e-22)
(-0.533011 0.00289716 1.87593e-20)
(-0.534121 -0.00128971 3.64688e-21)
(-0.527911 -0.00592759 -1.44076e-20)
(-0.513171 -0.0109143 -1.8523e-21)
(-0.488726 -0.016104 8.99578e-21)
(-0.453653 -0.0212612 -1.47588e-21)
(-0.407553 -0.0260661 1.21161e-21)
(-0.350703 -0.0301511 1.28169e-24)
(-0.284212 -0.0332169 -2.6238e-21)
(-0.209857 -0.0351019 4.11368e-22)
(-0.129775 -0.0357951 4.87393e-22)
(-0.0463398 -0.0353797 7.15013e-22)
(0.0381359 -0.0341288 2.0923e-22)
(0.122008 -0.0321281 -3.76144e-23)
(0.202769 -0.0298168 9.48962e-23)
(0.281042 -0.0270859 2.17826e-22)
(0.352568 -0.0245094 -6.48874e-24)
(0.422497 -0.0217026 -6.90754e-22)
(0.481904 -0.0194073 5.73811e-22)
(0.54385 -0.0168697 -8.58185e-23)
(0.589914 -0.0151391 2.8408e-22)
(0.646751 -0.0129561 4.79232e-22)
(0.678562 -0.0118646 -1.9275e-22)
(0.735075 -0.0100159 1.18991e-22)
(0.751049 -0.00952485 -1.01835e-22)
(0.81388 -0.00810786 -1.45747e-23)
(-0.178071 0.0369404 2.97967e-20)
(-0.198283 0.0377254 -5.50238e-20)
(-0.219014 0.0381481 3.45577e-20)
(-0.240729 0.0383892 7.85516e-21)
(-0.263311 0.0384239 6.46502e-21)
(-0.286637 0.0382117 -2.88601e-20)
(-0.310549 0.0376928 1.73354e-20)
(-0.33483 0.0368078 -2.68292e-20)
(-0.359199 0.0355004 6.51153e-20)
(-0.383312 0.0337176 -4.46135e-20)
(-0.40675 0.031411 2.39505e-20)
(-0.429022 0.0285371 -6.02618e-21)
(-0.449556 0.0250566 5.87345e-21)
(-0.467695 0.0209329 -6.32869e-21)
(-0.482711 0.0161329 -2.18211e-20)
(-0.4938 0.0106488 1.14634e-20)
(-0.499913 0.00446761 -1.61703e-20)
(-0.500009 -0.00243968 8.11323e-21)
(-0.492976 -0.0100815 -4.25451e-21)
(-0.477635 -0.018303 -3.18617e-21)
(-0.452847 -0.0268654 8.80566e-21)
(-0.417713 -0.0353761 1.45083e-21)
(-0.371852 -0.043308 -4.76035e-22)
(-0.315551 -0.0500399 -3.75506e-21)
(-0.249945 -0.0550787 6.78066e-21)
(-0.176793 -0.0581569 -1.49882e-21)
(-0.0982024 -0.0592647 -6.40832e-22)
(-0.0165076 -0.0585332 -9.28677e-24)
(0.0660625 -0.0564247 -2.21066e-22)
(0.147888 -0.0530866 6.63968e-22)
(0.226593 -0.0492389 -1.10138e-21)
(0.302752 -0.0447087 1.59952e-21)
(0.372307 -0.0404371 -1.39637e-23)
(0.440216 -0.0357952 -3.04498e-22)
(0.497892 -0.0320005 -1.11022e-21)
(0.557981 -0.0278138 -4.26448e-22)
(0.60265 -0.0249599 -6.58903e-22)
(0.657783 -0.0213655 -6.57638e-22)
(0.688604 -0.0195696 2.38301e-24)
(0.743475 -0.016531 -7.53059e-22)
(0.758931 -0.0157245 -1.025e-22)
(0.82003 -0.0134017 -1.56374e-22)
(-0.16152 0.0500136 1.75033e-21)
(-0.180154 0.0511372 -2.12856e-20)
(-0.199032 0.0517844 3.93743e-20)
(-0.218875 0.0521676 -1.04458e-20)
(-0.239571 0.0522528 -2.25631e-20)
(-0.260972 0.0519899 5.11686e-20)
(-0.282922 0.0512993 -2.29229e-20)
(-0.305203 0.0500998 -4.686e-20)
(-0.327539 0.0483139 1.18977e-20)
(-0.349592 0.0458693 1.7152e-21)
(-0.370955 0.0427001 -1.2017e-20)
(-0.391153 0.0387472 3.69068e-20)
(-0.409634 0.033958 1.04854e-20)
(-0.425769 0.0282844 -1.4471e-20)
(-0.43886 0.0216809 -5.3235e-22)
(-0.448144 0.0141264 -2.09357e-20)
(-0.452624 0.00561896 4.2756e-20)
(-0.451351 -0.00389597 -2.01491e-20)
(-0.443224 -0.0144127 -2.28934e-20)
(-0.427113 -0.0257377 1.52369e-20)
(-0.401929 -0.0375489 8.73852e-21)
(-0.3668 -0.0492982 -2.57102e-21)
(-0.321364 -0.0602597 8.61684e-21)
(-0.265926 -0.0695453 -8.28155e-21)
(-0.201641 -0.0764783 -5.54278e-22)
(-0.130246 -0.0806889 -1.30423e-21)
(-0.0537953 -0.0821733 4.82153e-21)
(0.0254294 -0.0810735 -1.93504e-21)
(0.105314 -0.0781051 4.98586e-22)
(0.184276 -0.0734399 -3.68252e-22)
(0.260111 -0.0680733 9.03441e-22)
(0.333332 -0.0617794 -6.04147e-22)
(0.400147 -0.0558459 4.64173e-22)
(0.465251 -0.0494171 -2.62746e-21)
(0.520521 -0.04416 2.54638e-21)
(0.578028 -0.0383766 -4.72952e-22)
(0.620753 -0.0344312 1.51143e-21)
(0.673502 -0.0294784 9.13171e-22)
(0.70294 -0.0269991 7.03118e-22)
(0.755498 -0.0228219 8.45463e-22)
(0.770233 -0.021708 -2.23633e-22)
(0.828874 -0.0185246 1.49606e-22)
(-0.140625 0.0614847 1.2766e-20)
(-0.157228 0.0629499 4.98872e-20)
(-0.173762 0.0638755 -1.92958e-20)
(-0.191226 0.06445 -8.38402e-20)
(-0.209527 0.0646273 1.01078e-19)
(-0.228494 0.0643538 -5.12848e-21)
(-0.247968 0.0635337 -3.31638e-20)
(-0.267735 0.0620657 3.10996e-20)
(-0.287527 0.0598529 -3.80877e-20)
(-0.307014 0.0568047 3.34429e-20)
(-0.325808 0.0528389 -2.75455e-22)
(-0.343452 0.0478828 -2.98687e-20)
(-0.359422 0.0418718 -1.16063e-20)
(-0.373123 0.0347493 1.29387e-20)
(-0.383894 0.0264584 4.30871e-20)
(-0.39102 0.0169604 -6.88621e-21)
(-0.393568 0.00626923 -5.47073e-20)
(-0.390697 -0.00569873 3.6351e-20)
(-0.381321 -0.0189206 -3.578e-20)
(-0.364373 -0.0331745 1.14084e-20)
(-0.33882 -0.0480719 -8.44502e-21)
(-0.303826 -0.06291 1.21259e-20)
(-0.259037 -0.0767758 1.28719e-20)
(-0.204789 -0.0885008 7.28531e-21)
(-0.142246 -0.0972378 -1.4377e-20)
(-0.0731133 -0.102524 -6.78079e-22)
(0.000640085 -0.104309 2.0721e-21)
(0.0767888 -0.10281 -4.91396e-22)
(0.153348 -0.0989833 -1.31511e-21)
(0.228809 -0.0930096 3.07811e-22)
(0.301149 -0.0861515 4.4212e-22)
(0.370815 -0.0781417 -8.38378e-22)
(0.434315 -0.0705901 5.1481e-22)
(0.49604 -0.0624363 2.21867e-21)
(0.548402 -0.0557635 1.09836e-21)
(0.602795 -0.0484498 -3.21281e-22)
(0.643171 -0.0434526 7.80341e-22)
(0.693028 -0.0372087 -7.44761e-22)
(0.720794 -0.0340713 8.72566e-23)
(0.770523 -0.0288212 -1.61635e-21)
(0.784385 -0.027409 6.00587e-22)
(0.839992 -0.0234229 7.24685e-23)
(-0.116226 0.0710571 1.52441e-20)
(-0.13043 0.0728332 -1.49902e-19)
(-0.144223 0.0740971 6.4325e-20)
(-0.158892 0.0749236 -3.5547e-21)
(-0.174383 0.075248 6.40598e-20)
(-0.190498 0.0750176 -2.75425e-20)
(-0.20708 0.0741252 3.24709e-21)
(-0.223924 0.0724518 -6.19257e-20)
(-0.24077 0.0698822 7.40977e-20)
(-0.257305 0.0663089 -1.92612e-21)
(-0.27316 0.0616349 -2.91905e-20)
(-0.287903 0.0557752 -1.68938e-20)
(-0.301043 0.0486543 2.09522e-20)
(-0.312022 0.0402096 1.38582e-20)
(-0.320224 0.0303757 4.3781e-20)
(-0.324981 0.0190958 -6.43635e-20)
(-0.325429 0.00639212 -9.47072e-21)
(-0.320845 -0.00783955 7.29444e-21)
(-0.310156 -0.0235654 -8.65413e-21)
(-0.292374 -0.0405401 1.82254e-20)
(-0.266525 -0.0583298 1.34436e-20)
(-0.231819 -0.0760791 2.97575e-22)
(-0.187899 -0.0927065 -3.22989e-20)
(-0.135154 -0.10675 5.50766e-21)
(-0.074742 -0.117209 1.36596e-20)
(-0.00831402 -0.123494 -6.85294e-21)
(0.0622629 -0.125455 -1.47362e-21)
(0.134832 -0.123595 3.78871e-21)
(0.20756 -0.118911 -5.67265e-22)
(0.279042 -0.111659 -9.85278e-22)
(0.34743 -0.103349 -1.87651e-21)
(0.413117 -0.0936834 1.31182e-21)
(0.472909 -0.0845674 5.56898e-24)
(0.530882 -0.0747608 4.86323e-22)
(0.580012 -0.0667262 3.17231e-22)
(0.630952 -0.0579585 -2.7428e-21)
(0.66872 -0.0519536 -1.99238e-21)
(0.715357 -0.0444957 1.05678e-21)
(0.741269 -0.0407276 -1.75508e-21)
(0.787821 -0.0344797 1.68029e-21)
(0.800719 -0.0327782 3.79801e-22)
(0.852885 -0.0280549 -1.5867e-22)
(-0.089189 0.0785513 3.76619e-20)
(-0.100745 0.0805452 -5.20565e-20)
(-0.111505 0.0822056 -5.09535e-20)
(-0.123071 0.0833502 -1.04266e-20)
(-0.135439 0.0838868 1.02876e-19)
(-0.148386 0.0837657 -1.51103e-19)
(-0.161763 0.0828726 7.88594e-20)
(-0.175378 0.0810734 4.65085e-20)
(-0.188986 0.0782361 1.37188e-20)
(-0.202296 0.0742372 -5.75531e-20)
(-0.214959 0.0689653 5.30952e-20)
(-0.226578 0.0623248 -3.97359e-20)
(-0.236694 0.0542291 1.04336e-20)
(-0.244789 0.0446119 1.76254e-20)
(-0.250295 0.0334024 7.12006e-21)
(-0.252588 0.0205308 -9.77444e-20)
(-0.250873 0.00600357 4.78329e-20)
(-0.244538 -0.0102772 2.66521e-20)
(-0.23253 -0.0282861 -5.0606e-20)
(-0.21394 -0.0477503 2.59484e-20)
(-0.187863 -0.068215 2.99632e-20)
(-0.153575 -0.0886778 6.84991e-21)
(-0.110709 -0.107935 -2.95931e-21)
(-0.059732 -0.124163 7.26896e-22)
(-0.00178222 -0.136264 2.23991e-21)
(0.061575 -0.143321 3.50479e-22)
(0.128559 -0.145507 5.71779e-22)
(0.197109 -0.143299 -4.21224e-21)
(0.265614 -0.137772 -1.11557e-22)
(0.332756 -0.129288 1.35534e-21)
(0.396867 -0.119579 -1.54145e-21)
(0.458294 -0.10833 -4.01801e-23)
(0.514132 -0.0977128 1.49107e-21)
(0.568144 -0.0863347 3.44786e-21)
(0.613861 -0.076998 -3.58301e-21)
(0.661178 -0.0668587 2.10872e-21)
(0.696209 -0.0598928 -2.92279e-21)
(0.739465 -0.0513034 6.41292e-22)
(0.76344 -0.0469323 6.02832e-22)
(0.806629 -0.0397668 1.04831e-22)
(0.818529 -0.0377838 -9.33444e-22)
(0.867015 -0.0323923 2.92145e-22)
(-0.0603014 0.0838029 -1.35497e-19)
(-0.0691227 0.0859439 1.06377e-20)
(-0.0766596 0.0880543 1.76687e-20)
(-0.0849409 0.0895731 6.05486e-20)
(-0.0939845 0.0903918 -9.28346e-20)
(-0.103557 0.090454 -2.52717e-20)
(-0.11352 0.0896431 4.8367e-20)
(-0.123701 0.0878121 -1.53512e-20)
(-0.13388 0.0848129 -3.36263e-20)
(-0.14379 0.0805068 3.03588e-20)
(-0.153113 0.0747676 7.80151e-21)
(-0.161484 0.0674907 -3.54052e-20)
(-0.16848 0.0585749 3.95159e-20)
(-0.173625 0.0479537 -2.8264e-20)
(-0.176396 0.0355523 6.5127e-22)
(-0.176212 0.0212932 9.03777e-20)
(-0.172337 0.00514597 -6.58457e-20)
(-0.164256 -0.0129498 2.1945e-20)
(-0.150935 -0.0330264 -2.04747e-20)
(-0.131547 -0.0547395 2.06202e-20)
(-0.105264 -0.077652 -8.34933e-20)
(-0.0714714 -0.10063 3.91107e-20)
(-0.0297805 -0.122368 2.49952e-20)
(0.0192451 -0.140585 -6.47064e-21)
(0.074508 -0.15411 1.10734e-21)
(0.134461 -0.161923 -1.29005e-21)
(0.19745 -0.164388 -6.5558e-21)
(0.261644 -0.161805 1.32934e-21)
(0.325601 -0.155471 1.73566e-21)
(0.388125 -0.145818 3.27512e-22)
(0.447719 -0.13478 -7.77752e-22)
(0.504708 -0.122033 -1.77919e-21)
(0.556447 -0.10999 6.14202e-22)
(0.6064 -0.0971294 -3.46956e-21)
(0.64863 -0.0865557 5.96292e-22)
(0.692281 -0.075132 3.3812e-21)
(0.724547 -0.0672535 -9.50253e-22)
(0.764392 -0.0576177 1.35898e-21)
(0.786429 -0.052671 2.31695e-21)
(0.826212 -0.0446691 3.11373e-22)
(0.837126 -0.042411 -2.43804e-22)
(0.881848 -0.0364192 1.6132e-22)
(-0.0301848 0.0862868 1.65402e-20)
(-0.0362919 0.0890775 -7.78558e-20)
(-0.0405885 0.0915996 4.18147e-20)
(-0.0455455 0.0935218 3.07322e-21)
(-0.0511899 0.0946902 -1.94649e-20)
(-0.0572946 0.0950103 1.3188e-19)
(-0.0637389 0.0943692 1.96159e-20)
(-0.070381 0.0926094 -7.06938e-20)
(-0.07703 0.0895668 -5.91386e-20)
(-0.0834521 0.0850865 7.76563e-20)
(-0.0893633 0.0790266 -6.72772e-20)
(-0.094439 0.0712747 5.76343e-20)
(-0.098293 0.0617086 -6.94679e-20)
(-0.100485 0.0502649 -7.04486e-21)
(-0.100537 0.036863 6.38311e-22)
(-0.0979056 0.0214213 1.45614e-19)
(-0.0918981 0.00388042 -2.31086e-20)
(-0.0820883 -0.0158026 1.66495e-20)
(-0.0674543 -0.037743 -2.18792e-21)
(-0.0472301 -0.0614741 -1.56999e-20)
(-0.0207001 -0.086621 -3.05408e-21)
(0.0126018 -0.111957 -2.20558e-20)
(0.0530774 -0.135712 4.82778e-20)
(0.100094 -0.155826 5.51508e-21)
(0.152427 -0.170659 -2.04956e-20)
(0.208678 -0.179309 5.52101e-21)
(0.267384 -0.181964 -9.79092e-21)
(0.326928 -0.179022 4.5274e-21)
(0.386067 -0.171934 -1.12082e-21)
(0.443752 -0.161192 -6.04329e-22)
(0.498652 -0.148909 3.00225e-22)
(0.551084 -0.134764 1.04058e-21)
(0.598639 -0.12138 -4.12272e-21)
(0.64451 -0.107135 6.08934e-22)
(0.683246 -0.0953956 -1.2957e-21)
(0.723268 -0.0827779 -1.24184e-21)
(0.752807 -0.0740373 2.39755e-21)
(0.789309 -0.0634408 -1.80287e-21)
(0.809465 -0.0579456 -1.88941e-21)
(0.845907 -0.049187 -1.2199e-21)
(0.855882 -0.0466595 -1.0736e-21)
(0.896887 -0.0401313 -8.50322e-22)
(0.00081647 0.0864859 -1.75848e-19)
(-0.00239229 0.0900834 1.81662e-19)
(-0.00395016 0.0928771 -2.11494e-19)
(-0.00566931 0.0952327 -2.3321e-20)
(-0.00797668 0.0968002 1.41687e-19)
(-0.0106514 0.0974393 -2.60772e-21)
(-0.0135844 0.0970493 -3.34015e-20)