/*--------------------------------*- C++ -*----------------------------------*\
  =========                 |
  \\      /  F ield         | OpenFOAM: The Open Source CFD Toolbox
   \\    /   O peration     | Website:  https://openfoam.org
    \\  /    A nd           | Version:  7
     \\/     M anipulation  |
\*---------------------------------------------------------------------------*/
FoamFile
{
    version     2.0;
    format      ascii;
    class       volScalarField;
    location    "30";
    object      p;
}
// * * * * * * * * * * * * * * * * * * * * * * * * * * * * * * * * * * * * * //

dimensions      [0 2 -2 0 0 0 0];

internalField   nonuniform List<scalar> 
8330
(
-0.00175433
-0.00329242
-0.0049109
-0.00662569
-0.00845507
-0.00699694
-0.010419
-0.00859245
-0.0125405
-0.0102973
-0.0148412
-0.0121262
-0.017322
-0.0141112
-0.0102952
-0.0200195
-0.0162558
-0.0120595
-0.0229564
-0.018575
-0.0139877
-0.00865645
-0.0261513
-0.0210866
-0.0160972
-0.010275
-0.0296226
-0.0238074
-0.0184052
-0.0120629
-0.0333875
-0.0267535
-0.0209276
-0.0140284
-0.0077644
-0.0374617
-0.029941
-0.0236789
-0.0161764
-0.00933303
-0.0418585
-0.0333854
-0.0266707
-0.0185104
-0.0110423
-0.00346532
-0.0465894
-0.0371015
-0.029911
-0.021034
-0.0128902
-0.00441654
0.00485324
-0.0516628
-0.0411024
-0.0334033
-0.0237517
-0.014864
-0.00534217
0.00517976
-0.0570845
-0.0453986
-0.0371471
-0.026668
-0.0169369
-0.00619943
0.00567675
0.0182736
-0.0628566
-0.0499957
-0.0411391
-0.0297829
-0.0190677
-0.00694529
0.00636715
0.0201957
0.0338228
-0.0689773
-0.0548937
-0.0453745
-0.0330864
-0.0212045
-0.00753835
0.00727134
0.0223272
0.0368671
0.0503763
-0.0754398
-0.0600844
-0.0498477
-0.0365525
-0.0232894
-0.0079395
0.00840794
0.0246758
0.0400985
0.0542433
0.0670338
-0.0822312
-0.0655516
-0.054551
-0.0401364
-0.0252623
-0.00811207
0.00979455
0.0272507
0.0435241
0.0582762
0.0714766
0.0830584
-0.089331
-0.0712706
-0.0594714
-0.0437754
-0.0270641
-0.00802158
0.0114484
0.0300619
0.0471528
0.0624841
0.0760765
0.087967
0.0986527
-0.0967092
-0.0772097
-0.0645851
-0.0473933
-0.0286372
-0.00763543
0.0133868
0.0331211
0.050995
0.066877
0.080843
0.0930262
0.103868
0.112685
-0.104325
-0.0833308
-0.0698525
-0.0509055
-0.0299257
-0.0069225
0.0156275
0.0364413
0.0550621
0.0714659
0.0857859
0.0982439
0.109225
0.118206
-0.112125
-0.0895904
-0.075214
-0.0542251
-0.0308752
-0.00585278
0.0181888
0.0400365
0.0593668
0.0762624
0.0909153
0.103628
0.114731
0.123867
-0.120041
-0.0959397
-0.0805884
-0.0572657
-0.031433
-0.00439691
0.0210896
0.0439219
0.0639224
0.0812781
0.0962409
0.109185
0.120391
0.129671
-0.127994
-0.102323
-0.0858745
-0.0599439
-0.0315486
-0.00252604
0.0243492
0.0481135
0.0687426
0.0865248
0.101772
0.114922
0.126212
0.135622
-0.13589
-0.108678
-0.0909548
-0.0621794
-0.0311734
-0.000211699
0.0279876
0.0526275
0.0738414
0.0920142
0.107519
0.120847
0.132198
0.141724
-0.143626
-0.114931
-0.0957018
-0.0638951
-0.0302615
0.00257412
0.032025
0.0574806
0.0792325
0.0977577
0.113489
0.126965
0.138355
0.147979
-0.15109
-0.120999
-0.0999839
-0.0650169
-0.0287694
0.00585883
0.0364816
0.0626893
0.0849296
0.103766
0.11969
0.133282
0.144687
0.154388
-0.158164
-0.126785
-0.103672
-0.0654737
-0.0266565
0.00966901
0.0413773
0.0682699
0.0909454
0.110049
0.12613
0.139803
0.151198
0.160955
-0.164729
-0.132182
-0.106643
-0.065198
-0.0238846
0.0140302
0.0467317
0.0742378
0.0972923
0.116617
0.132816
0.146532
0.157892
0.167679
-0.170662
-0.13707
-0.108783
-0.0641265
-0.0204185
0.0189664
0.0525634
0.0806079
0.103982
0.123477
0.139753
0.153475
0.16477
0.17456
-0.175843
-0.141322
-0.10999
-0.0622006
-0.0162257
0.0245004
0.0588897
0.0873936
0.111023
0.130637
0.146946
0.160633
0.171836
0.181596
-0.180155
-0.144805
-0.110174
-0.0593673
-0.0112766
0.0306528
0.0657269
0.0946073
0.118427
0.138104
0.154399
0.168009
0.179088
0.188784
-0.183483
-0.147385
-0.109256
-0.0555796
-0.00554464
0.0374422
0.0730894
0.10226
0.126199
0.145882
0.162114
0.175606
0.186526
0.196117
-0.185719
-0.148929
-0.107167
-0.0507973
0.000993327
0.0448849
0.0809896
0.11036
0.134347
0.153975
0.170094
0.183425
0.194151
0.20359
-0.186758
-0.14931
-0.103851
-0.0449868
0.00835705
0.0529949
0.089438
0.118915
0.142875
0.162385
0.17834
0.191467
0.201964
0.211224
-0.186505
-0.148411
-0.0992598
-0.0381214
0.0165626
0.0617832
0.0984425
0.12793
0.151784
0.171112
0.186851
0.199729
0.209954
0.219075
-0.184868
-0.146128
-0.0933537
-0.0301807
0.025622
0.0712581
0.108009
0.137409
0.161076
0.180159
0.195629
0.208207
0.2181
0.227165
-0.181767
-0.142371
-0.0860996
-0.0211504
0.0355438
0.0814245
0.118139
0.147351
0.170753
0.189523
0.204673
0.216895
0.226406
0.235369
-0.177127
-0.137066
-0.0774736
-0.0110223
0.0463318
0.0922841
0.128834
0.157758
0.180811
0.199201
0.213973
0.225767
0.234936
0.243638
-0.170885
-0.130151
-0.0674609
0.000205743
0.0579853
0.103837
0.140095
0.168627
0.191245
0.20918
0.223504
0.234839
0.243657
0.252005
-0.162985
-0.121583
-0.0560554
0.0125292
0.070498
0.116081
0.15192
0.179948
0.202037
0.219454
0.233277
0.244107
0.25254
0.260486
-0.153382
-0.11133
-0.0432595
0.0259382
0.0838616
0.129013
0.164298
0.191699
0.213186
0.230021
0.243282
0.253564
0.26157
0.269081
-0.142042
-0.0993774
-0.0290838
0.0404202
0.0980738
0.142613
0.177197
0.203883
0.224685
0.240868
0.253509
0.2632
0.270737
0.277783
-0.128941
-0.085723
-0.0135467
0.0559605
0.113143
0.156834
0.190605
0.216491
0.236521
0.251984
0.263948
0.273004
0.280034
0.286582
-0.114068
-0.070379
0.00332611
0.0725352
0.129051
0.171643
0.20452
0.229504
0.248679
0.263354
0.274585
0.282964
0.28945
0.295466
-0.0974216
-0.0533701
0.0215022
0.0901048
0.145649
0.187134
0.218921
0.242903
0.261143
0.274962
0.285407
0.293068
0.298975
0.304422
-0.0790154
-0.0347313
0.0409388
0.10863
0.162979
0.203218
0.233789
0.256665
0.273892
0.286793
0.296398
0.303301
0.308597
0.313436
-0.058873
-0.0145074
0.0615843
0.128068
0.181022
0.219857
0.249094
0.270769
0.286908
0.298827
0.307542
0.31365
0.318302
0.322494
-0.0370323
0.00723351
0.0833994
0.148378
0.199741
0.237015
0.264809
0.285189
0.300167
0.311046
0.318821
0.3241
0.328076
0.331578
-0.0135476
0.0303684
0.106397
0.169517
0.21909
0.254659
0.280901
0.299899
0.313646
0.323428
0.330217
0.334633
0.337901
0.340668
0.0115115
0.0547362
0.130589
0.19146
0.239021
0.272748
0.297335
0.314868
0.327319
0.335951
0.34171
0.345234
0.347759
0.34974
0.0380733
0.0803451
0.155808
0.214146
0.25948
0.291239
0.314076
0.330066
0.341161
0.348591
0.35328
0.355885
0.357633
0.358768
0.0660654
0.107565
0.181528
0.237474
0.280417
0.310087
0.331084
0.34546
0.355141
0.361323
0.364904
0.36657
0.367511
0.367735
0.095383
0.135999
0.207929
0.26136
0.301776
0.329245
0.348319
0.361016
0.369232
0.374122
0.376561
0.377274
0.377383
0.376616
0.12593
0.165489
0.235005
0.28573
0.323496
0.348663
0.365739
0.376698
0.383402
0.38696
0.38823
0.38799
0.38722
0.385303
0.157671
0.195815
0.262691
0.310511
0.345514
0.36829
0.383301
0.392469
0.39762
0.39981
0.399896
0.39871
0.396951
0.393517
0.190427
0.226875
0.290896
0.335627
0.367768
0.388071
0.400957
0.40829
0.41185
0.412646
0.411549
0.409416
0.40646
0.401049
0.224051
0.25857
0.319524
0.361002
0.39019
0.407953
0.418663
0.42412
0.42606
0.425443
0.423169
0.420053
0.415678
0.408445
0.258406
0.290784
0.348471
0.386556
0.412713
0.427877
0.436369
0.439921
0.440216
0.438176
0.434721
0.430536
0.424616
0.417125
0.293351
0.323389
0.377633
0.412205
0.435267
0.447786
0.454028
0.455649
0.454282
0.450813
0.446162
0.440831
0.433613
0.426124
0.328736
0.356257
0.406902
0.437865
0.457781
0.467622
0.471589
0.471263
0.468225
0.463325
0.457458
0.450962
0.442664
0.435003
0.364411
0.389255
0.43617
0.46345
0.480185
0.487323
0.489001
0.486721
0.482009
0.475679
0.468584
0.460933
0.451692
0.443705
0.400221
0.422252
0.465327
0.488872
0.502405
0.506831
0.506215
0.501979
0.495596
0.487841
0.479514
0.470735
0.460621
0.452168
0.43601
0.455111
0.494266
0.514046
0.52437
0.526084
0.52318
0.516996
0.508952
0.499781
0.490226
0.480347
0.469398
0.460383
0.471623
0.487699
0.522878
0.538882
0.546008
0.545023
0.539845
0.531728
0.522039
0.511466
0.500695
0.489745
0.477983
0.468343
0.506904
0.519882
0.551054
0.563295
0.567245
0.563587
0.556159
0.546133
0.534822
0.522865
0.510897
0.498904
0.486345
0.476041
0.541699
0.551525
0.578689
0.587197
0.588012
0.581716
0.572073
0.560169
0.547265
0.533949
0.520807
0.507799
0.494461
0.48347
0.575853
0.5825
0.605677
0.610505
0.608237
0.599354
0.587538
0.573796
0.559332
0.544689
0.5304
0.516406
0.502308
0.490617
0.609216
0.612677
0.631917
0.633134
0.627853
0.616441
0.602506
0.586971
0.57099
0.555054
0.539651
0.524703
0.509866
0.497474
0.64164
0.641934
0.657309
0.655004
0.646791
0.632922
0.61693
0.599657
0.582205
0.565016
0.548535
0.532668
0.517116
0.504028
0.67298
0.67015
0.681755
0.676036
0.664986
0.648744
0.630765
0.611814
0.592944
0.574549
0.557029
0.540281
0.524041
0.510267
0.703099
0.69721
0.705163
0.696155
0.682377
0.663853
0.643966
0.623406
0.603177
0.583625
0.565111
0.547521
0.530623
0.516179
0.731861
0.723002
0.727444
0.715286
0.698901
0.678199
0.656491
0.634398
0.612872
0.592219
0.572759
0.554369
0.536847
0.521754
0.75914
0.74742
0.748512
0.733361
0.714502
0.691734
0.668301
0.644754
0.622002
0.600307
0.579952
0.560808
0.542696
0.526979
0.784815
0.770366
0.768286
0.750314
0.729126
0.704413
0.679357
0.654444
0.63054
0.607866
0.58667
0.566821
0.548157
0.531844
0.80877
0.791745
0.786691
0.766082
0.74272
0.716193
0.689624
0.663437
0.63846
0.614874
0.592896
0.572392
0.553214
0.53634
0.830902
0.81147
0.803658
0.780609
0.755238
0.727035
0.699068
0.671706
0.645738
0.621311
0.598612
0.577505
0.557854
0.540457
0.85111
0.829459
0.819119
0.793841
0.766634
0.736901
0.707658
0.679224
0.652352
0.627159
0.603802
0.582148
0.562067
0.544186
0.869306
0.845641
0.833017
0.805729
0.776869
0.745758
0.715367
0.685968
0.658284
0.6324
0.608453
0.586306
0.565839
0.54752
0.885409
0.859949
0.845298
0.81623
0.785907
0.753576
0.722169
0.691916
0.663513
0.63702
0.61255
0.58997
0.569163
0.550452
0.899348
0.872324
0.855915
0.825305
0.793715
0.760329
0.728043
0.697051
0.668026
0.641005
0.616084
0.593129
0.572027
0.552975
0.911061
0.882716
0.864827
0.83292
0.800266
0.765993
0.732968
0.701356
0.671809
0.644344
0.619044
0.595775
0.574426
0.555086
0.920497
0.891083
0.872
0.839048
0.805536
0.770549
0.736929
0.704816
0.674849
0.647028
0.621422
0.5979
0.576353
0.556779
0.927613
0.897391
0.877406
0.843666
0.809507
0.773981
0.739912
0.707423
0.677138
0.649047
0.623211
0.599499
0.577801
0.55805
0.932378
0.901613
0.881024
0.846756
0.812164
0.776277
0.741907
0.709166
0.678669
0.650398
0.624407
0.600568
0.57877
0.558898
0.934772
0.903733
0.88284
0.848308
0.813498
0.777429
0.742909
0.71004
0.679436
0.651075
0.625007
0.601104
0.579258
0.559337
0.934782
0.903742
0.882848
0.848314
0.813503
0.777433
0.742912
0.710042
0.679438
0.651076
0.625008
0.601105
0.579259
0.559343
0.932409
0.90164
0.881047
0.846776
0.81218
0.776289
0.741917
0.709172
0.678673
0.6504
0.624408
0.600568
0.578769
0.558898
0.927664
0.897434
0.877443
0.843697
0.809532
0.774001
0.739927
0.707433
0.677144
0.64905
0.623211
0.599498
0.577798
0.558043
0.920567
0.891143
0.872051
0.839091
0.805571
0.770575
0.736948
0.704829
0.674856
0.64703
0.62142
0.597896
0.576346
0.556767
0.911149
0.882791
0.864891
0.832973
0.800308
0.766025
0.73299
0.701369
0.671815
0.644345
0.619039
0.595768
0.574416
0.555069
0.899452
0.872413
0.855991
0.825366
0.793764
0.760365
0.728067
0.697065
0.668032
0.641003
0.616077
0.593119
0.572013
0.552954
0.885527
0.86005
0.845384
0.816299
0.785961
0.753615
0.722195
0.69193
0.663517
0.637015
0.61254
0.589957
0.569146
0.550426
0.869437
0.845753
0.833111
0.805804
0.776927
0.745799
0.715392
0.68598
0.658285
0.632393
0.60844
0.586291
0.56582
0.54749
0.851251
0.82958
0.81922
0.79392
0.766694
0.736942
0.707683
0.679234
0.652351
0.627149
0.603787
0.58213
0.562046
0.544153
0.831051
0.811597
0.803764
0.780692
0.755299
0.727076
0.699091
0.671714
0.645735
0.621299
0.598595
0.577487
0.557833
0.54042
0.808926
0.791877
0.786801
0.766167
0.742782
0.716233
0.689645
0.663444
0.638455
0.614861
0.592878
0.572373
0.553192
0.536301
0.784974
0.770502
0.768398
0.750399
0.729187
0.704452
0.679377
0.654449
0.630533
0.607852
0.586651
0.566802
0.548134
0.531803
0.759301
0.747558
0.748624
0.733446
0.714562
0.691771
0.668319
0.644757
0.621994
0.600292
0.579932
0.560789
0.542674
0.526935
0.732022
0.723139
0.727556
0.715369
0.698959
0.678234
0.656507
0.634399
0.612863
0.592204
0.572739
0.55435
0.536825
0.521708
0.703257
0.697345
0.705273
0.696236
0.682432
0.663885
0.64398
0.623407
0.603167
0.583609
0.565092
0.547502
0.530602
0.516132
0.673134
0.670282
0.681862
0.676115
0.665039
0.648774
0.630777
0.611814
0.592934
0.574533
0.55701
0.540263
0.52402
0.510217
0.641787
0.642062
0.657412
0.655079
0.64684
0.632951
0.616941
0.599656
0.582195
0.565001
0.548517
0.532651
0.517096
0.503977
0.609357
0.612799
0.632016
0.633205
0.627899
0.616467
0.602516
0.58697
0.570981
0.555039
0.539633
0.524687
0.509847
0.497422
0.575985
0.582615
0.60577
0.610571
0.608281
0.599378
0.587547
0.573794
0.559323
0.544675
0.530383
0.516391
0.502291
0.490564
0.541821
0.551634
0.578776
0.587259
0.588053
0.581739
0.572081
0.560167
0.547256
0.533936
0.520792
0.507785
0.494445
0.483416
0.507017
0.519982
0.551135
0.563352
0.567283
0.563607
0.556166
0.546131
0.534814
0.522853
0.510882
0.498891
0.486332
0.475988
0.471725
0.487791
0.522952
0.538935
0.546042
0.545041
0.539851
0.531726
0.522032
0.511454
0.500681
0.489733
0.477971
0.46829
0.436101
0.455194
0.494334
0.514094
0.524402
0.526101
0.523186
0.516994
0.508945
0.49977
0.490213
0.480337
0.469389
0.460331
0.4003
0.422325
0.465389
0.488916
0.502434
0.506846
0.506221
0.501978
0.49559
0.487832
0.479502
0.470726
0.460616
0.452118
0.364478
0.38932
0.436224
0.463488
0.48021
0.487337
0.489006
0.486719
0.482003
0.475671
0.468572
0.460926
0.451693
0.443662
0.328791
0.356312
0.406949
0.437899
0.457804
0.467634
0.471593
0.471262
0.46822
0.463318
0.457448
0.450954
0.442671
0.434974
0.293394
0.323434
0.377673
0.412234
0.435286
0.447797
0.454032
0.455648
0.454278
0.450807
0.446152
0.440823
0.433626
0.426122
0.258438
0.29082
0.348505
0.38658
0.41273
0.427886
0.436373
0.439919
0.440212
0.43817
0.434714
0.430527
0.424631
0.417171
0.224072
0.258597
0.319551
0.361023
0.390204
0.40796
0.418666
0.424119
0.426056
0.425438
0.423163
0.420045
0.415689
0.408531
0.190438
0.226893
0.290917
0.335643
0.367779
0.388077
0.400959
0.408288
0.411846
0.412641
0.411544
0.409409
0.406465
0.401113
0.157671
0.195824
0.262705
0.310522
0.345523
0.368294
0.383302
0.392467
0.397615
0.399805
0.399892
0.398703
0.39695
0.393549
0.125921
0.16549
0.235013
0.285738
0.323502
0.348666
0.36574
0.376696
0.383398
0.386955
0.388225
0.387983
0.387215
0.385318
0.0953643
0.135992
0.207931
0.261364
0.301779
0.329246
0.348318
0.361013
0.369227
0.374116
0.376555
0.377268
0.377376
0.376623
0.0660382
0.10755
0.181525
0.237474
0.280418
0.310087
0.331082
0.345456
0.355136
0.361317
0.364897
0.366562
0.367503
0.367737
0.0380384
0.080323
0.155799
0.214142
0.259479
0.291237
0.314073
0.330061
0.341154
0.348583
0.353272
0.355876
0.357623
0.358765
0.0114694
0.0547073
0.130575
0.191453
0.239016
0.272744
0.297331
0.314862
0.327312
0.335942
0.341701
0.345224
0.347748
0.349733
-0.0135962
0.0303334
0.106378
0.169506
0.219083
0.254654
0.280895
0.299892
0.313638
0.323419
0.330207
0.334622
0.337888
0.340659
-0.0370867
0.00719285
0.0833758
0.148364
0.199732
0.237008
0.264802
0.285182
0.300157
0.311036
0.31881
0.324087
0.328062
0.331566
-0.0589327
-0.0145532
0.0615564
0.12805
0.181011
0.219848
0.249086
0.27076
0.286897
0.298816
0.30753
0.313637
0.318287
0.32248
-0.0790796
-0.0347818
0.0409068
0.10861
0.162965
0.203208
0.233779
0.256655
0.273881
0.28678
0.296385
0.303286
0.30858
0.31342
-0.0974898
-0.0534248
0.0214665
0.0900813
0.145633
0.187123
0.218911
0.242891
0.26113
0.274948
0.285392
0.293052
0.298957
0.304404
-0.114139
-0.0704373
0.00328708
0.0725091
0.129033
0.17163
0.204507
0.229492
0.248666
0.263339
0.274569
0.282947
0.289431
0.295446
-0.129015
-0.0857845
-0.0135888
0.0559319
0.113123
0.156819
0.190592
0.216477
0.236506
0.251968
0.263931
0.272986
0.280014
0.286561
-0.142119
-0.0994416
-0.0291286
0.0403893
0.0980523
0.142597
0.177182
0.203868
0.224669
0.240851
0.253491
0.263181
0.270716
0.277761
-0.153461
-0.111397
-0.0433068
0.0259052
0.0838383
0.128994
0.164282
0.191683
0.213168
0.230002
0.243262
0.253543
0.261547
0.269057
-0.163065
-0.121651
-0.0561048
0.0124943
0.0704731
0.116061
0.151902
0.179931
0.202019
0.219435
0.233256
0.244085
0.252517
0.260461
-0.170965
-0.13022
-0.0675121
0.000169119
0.0579588
0.103816
0.140076
0.168608
0.191225
0.20916
0.223482
0.234816
0.243632
0.251979
-0.177208
-0.137135
-0.0775262
-0.0110604
0.0463039
0.0922618
0.128814
0.157738
0.18079
0.199179
0.21395
0.225742
0.234911
0.24361
-0.181847
-0.142441
-0.0861534
-0.0211899
0.0355146
0.081401
0.118118
0.14733
0.170731
0.1895
0.204649
0.21687
0.226379
0.23534
-0.184947
-0.146197
-0.0934084
-0.0302212
0.0255917
0.0712335
0.107986
0.137387
0.161054
0.180135
0.195604
0.20818
0.218072
0.227135
-0.186583
-0.14848
-0.0993151
-0.0381628
0.0165312
0.0617575
0.0984193
0.127908
0.15176
0.171087
0.186824
0.199701
0.209925
0.219043
-0.186835
-0.149378
-0.103906
-0.045029
0.00832475
0.0529683
0.0894138
0.118891
0.14285
0.162358
0.178312
0.191438
0.201934
0.211192
-0.185794
-0.148996
-0.107222
-0.05084
0.000960274
0.0448575
0.0809646
0.110335
0.134321
0.153948
0.170066
0.183395
0.194119
0.203556
-0.183557
-0.147451
-0.109311
-0.0556226
-0.00557831
0.037414
0.0730635
0.102234
0.126173
0.145854
0.162084
0.175575
0.186493
0.196082
-0.180226
-0.144869
-0.110229
-0.0594103
-0.0113107
0.0306239
0.0657004
0.0945808
0.118399
0.138075
0.154368
0.167976
0.179054
0.188748
-0.175912
-0.141383
-0.110044
-0.0622435
-0.0162602
0.024471
0.0588625
0.0873663
0.110995
0.130607
0.146914
0.160599
0.1718
0.181558
-0.170728
-0.137129
-0.108836
-0.0641691
-0.0204532
0.0189366
0.0525355
0.0805799
0.103952
0.123446
0.13972
0.15344
0.164734
0.17452
-0.164792
-0.132238
-0.106694
-0.0652401
-0.0239194
0.0139999
0.0467034
0.0742092
0.0972621
0.116584
0.132782
0.146496
0.157853
0.167638
-0.158225
-0.126839
-0.103721
-0.0655151
-0.0266912
0.00963852
0.0413485
0.0682406
0.0909145
0.110016
0.126095
0.139765
0.151159
0.160913
-0.151148
-0.12105
-0.100032
-0.0650574
-0.0288039
0.0058282
0.0364524
0.0626595
0.0848978
0.103732
0.119653
0.133243
0.144646
0.154344
-0.143681
-0.11498
-0.0957475
-0.0639346
-0.0302956
0.00254345
0.0319955
0.0574503
0.0792001
0.0977225
0.113451
0.126924
0.138312
0.147933
-0.135942
-0.108724
-0.0909985
-0.0622177
-0.031207
-0.000242302
0.0279579
0.0525967
0.0738082
0.0919781
0.107479
0.120805
0.132154
0.141676
-0.128043
-0.102367
-0.0859159
-0.0599809
-0.0315816
-0.00255646
0.0243193
0.0480822
0.0687088
0.0864877
0.101732
0.114879
0.126166
0.135573
-0.120087
-0.0959812
-0.0806276
-0.0573013
-0.0314652
-0.00442703
0.0210596
0.0438904
0.0638879
0.08124
0.0961992
0.10914
0.120343
0.129619
-0.112168
-0.0896297
-0.0752509
-0.0542591
-0.0309065
-0.00588249
0.0181589
0.0400046
0.0593317
0.0762233
0.0908723
0.103581
0.114681
0.123813
-0.104366
-0.0833678
-0.0698872
-0.0509379
-0.0299559
-0.00695168
0.0155977
0.0364092
0.0550264
0.0714259
0.0857415
0.0981953
0.109173
0.11815
-0.0967474
-0.0772446
-0.0646176
-0.0474239
-0.0286663
-0.00766395
0.0133572
0.0330888
0.0509587
0.066836
0.0807971
0.0929758
0.103813
0.112627
-0.0893667
-0.0713035
-0.0595019
-0.0438043
-0.0270919
-0.00804932
0.0114191
0.0300295
0.047116
0.0624421
0.0760292
0.0879146
0.0985961
-0.0822647
-0.0655824
-0.0545797
-0.0401634
-0.0252887
-0.00813889
0.00976572
0.0272182
0.0434867
0.0582332
0.0714278
-0.0754711
-0.0601134
-0.0498745
-0.0365777
-0.0233143
-0.00796527
0.00837966
0.0246434
0.0400606
0.0541992
-0.0690066
-0.0549209
-0.0453997
-0.0331099
-0.0212278
-0.00756293
0.00724374
0.0222948
0.0368287
0.0503311
-0.062884
-0.0500213
-0.0411627
-0.0298046
-0.0190894
-0.00696857
0.00634035
0.0201636
0.033784
-0.0571102
-0.0454226
-0.0371691
-0.0266881
-0.0169568
-0.0062213
0.00565088
0.0182418
-0.051687
-0.0411251
-0.0334239
-0.0237702
-0.0148823
-0.00536252
0.00515495
-0.0466121
-0.0371229
-0.0299302
-0.0210511
-0.0129068
-0.00443531
0.00482961
-0.04188
-0.0334056
-0.0266887
-0.0185261
-0.0110573
-0.00348248
-0.0374821
-0.0299602
-0.0236957
-0.0161908
-0.00934653
-0.0334071
-0.0267719
-0.0209434
-0.0140416
-0.00777651
-0.0296415
-0.0238251
-0.0184201
-0.0120751
-0.0261697
-0.0211038
-0.0161115
-0.0102862
-0.0229745
-0.0185918
-0.0140014
-0.0200376
-0.0162723
-0.012073
-0.0173403
-0.0141277
-0.0103085
-0.0148599
-0.0121428
-0.0125598
-0.0103142
-0.010439
-0.00860974
-0.00847588
-0.00664744
-0.00493363
-0.00331616
-0.00177907
0.179711
0.172973
0.16636
0.159875
0.153517
0.147288
0.141185
0.135209
0.129358
0.123629
0.118022
0.181782
0.175187
0.168709
0.162347
0.156103
0.149976
0.143966
0.138073
0.132296
0.126633
0.121084
0.183784
0.177365
0.171055
0.164853
0.158762
0.15278
0.146907
0.141144
0.13549
0.129944
0.124505
0.185743
0.179484
0.173325
0.167266
0.161308
0.155452
0.149697
0.144043
0.13849
0.133038
0.127685
0.187644
0.181537
0.175521
0.169597
0.163764
0.158024
0.152376
0.146821
0.141359
0.135988
0.130709
0.189479
0.183524
0.177651
0.171861
0.166155
0.160534
0.154997
0.149544
0.144176
0.138892
0.133693
0.191252
0.185447
0.179717
0.174063
0.168486
0.162985
0.157562
0.152216
0.146948
0.141758
0.136646
0.192963
0.187308
0.18172
0.176201
0.170752
0.165373
0.160065
0.154829
0.149664
0.14457
0.139549
0.194614
0.189105
0.183658
0.178273
0.172952
0.167695
0.162503
0.157376
0.152315
0.14732
0.142392
0.196203
0.190839
0.18553
0.180279
0.175085
0.16995
0.164874
0.159858
0.154902
0.150007
0.145174
0.197731
0.192509
0.187338
0.182219
0.177151
0.172137
0.167177
0.162272
0.157423
0.152629
0.147893
0.199198
0.194117
0.189081
0.184091
0.179149
0.174256
0.169412
0.164618
0.159875
0.155184
0.150546
0.200605
0.195661
0.190758
0.185897
0.181079
0.176305
0.171576
0.166894
0.162258
0.15767
0.153131
0.201952
0.197143
0.19237
0.187636
0.18294
0.178285
0.17367
0.169098
0.16457
0.160085
0.155646
0.20324
0.198562
0.193918
0.189307
0.184732
0.180194
0.175693
0.171231
0.166809
0.162428
0.158088
0.20447
0.19992
0.195401
0.190912
0.186456
0.182032
0.177643
0.17329
0.168974
0.164695
0.160456
0.205641
0.201217
0.19682
0.19245
0.18811
0.1838
0.179521
0.175276
0.171064
0.166887
0.162747
0.206754
0.202453
0.198174
0.193921
0.189695
0.185496
0.181326
0.177187
0.173078
0.169002
0.16496
0.207809
0.203627
0.199465
0.195326
0.191211
0.187121
0.183058
0.179022
0.175016
0.171039
0.167094
0.208809
0.204742
0.200694
0.196666
0.192659
0.188676
0.184716
0.180783
0.176876
0.172997
0.169148
0.209753
0.205798
0.20186
0.19794
0.194039
0.190159
0.186302
0.182468
0.178659
0.174876
0.171121
0.210642
0.206796
0.202965
0.199149
0.195351
0.191573
0.187814
0.184077
0.180364
0.176675
0.173011
0.211479
0.207738
0.204009
0.200295
0.196597
0.192916
0.189254
0.185612
0.181991
0.178393
0.174819
0.212263
0.208623
0.204995
0.201379
0.197777
0.194191
0.190622
0.187071
0.183541
0.180032
0.176545
0.212997
0.209455
0.205922
0.2024
0.198891
0.195397
0.191918
0.188456
0.185013
0.18159
0.178188
0.213681
0.210232
0.206792
0.203361
0.199942
0.196535
0.193144
0.189767
0.186408
0.183068
0.179748
0.214318
0.210958
0.207606
0.204262
0.200929
0.197607
0.194299
0.191005
0.187727
0.184467
0.181225
0.214907
0.211633
0.208365
0.205105
0.201854
0.198614
0.195385
0.19217
0.18897
0.185786
0.18262
0.215451
0.212259
0.209071
0.205891
0.202718
0.199555
0.196403
0.193264
0.190138
0.187027
0.183933
0.215951
0.212836
0.209725
0.20662
0.203522
0.200433
0.197354
0.194286
0.191231
0.18819
0.185164
0.216407
0.213366
0.210328
0.207294
0.204267
0.201248
0.198238
0.195238
0.19225
0.189275
0.186314
0.216822
0.21385
0.21088
0.207915
0.204954
0.202001
0.199056
0.19612
0.193195
0.190282
0.187383
0.217198
0.21429
0.211384
0.208482
0.205584
0.202693
0.199809
0.196933
0.194068
0.191213
0.188372
0.217533
0.214686
0.21184
0.208997
0.206158
0.203324
0.200497
0.197678
0.194867
0.192068
0.18928
0.217831
0.21504
0.21225
0.209461
0.206676
0.203896
0.201121
0.198354
0.195595
0.192846
0.190107
0.218093
0.215353
0.212613
0.209875
0.207139
0.204408
0.201682
0.198962
0.19625
0.193546
0.190853
0.218318
0.215624
0.21293
0.210238
0.207547
0.20486
0.202178
0.199501
0.196831
0.19417
0.191517
0.218504
0.215852
0.2132
0.210548
0.207898
0.205251
0.202608
0.19997
0.197338
0.194713
0.192097
0.218657
0.216041
0.213425
0.210809
0.208195
0.205582
0.202973
0.200369
0.19777
0.195177
0.192592
0.218766
0.216182
0.213596
0.211011
0.208427
0.205844
0.203264
0.200689
0.198118
0.195553
0.192994
0.218851
0.216292
0.213732
0.211171
0.20861
0.206051
0.203494
0.20094
0.19839
0.195845
0.193306
0.190773
0.218865
0.216327
0.213788
0.211249
0.208711
0.206174
0.203639
0.201107
0.198578
0.196053
0.193533
0.191019
0.402712
0.394674
0.386933
0.379161
0.370926
0.362527
0.354106
0.345645
0.33715
0.328646
0.320154
0.311685
0.303254
0.29487
0.286545
0.278286
0.270103
0.262004
0.253996
0.246096
0.238316
0.230636
0.222768
0.215217
0.207883
0.20067
0.193564
0.186575
0.399351
0.391038
0.382829
0.37516
0.36712
0.358908
0.350723
0.342526
0.334304
0.326083
0.317878
0.309699
0.301557
0.29346
0.285418
0.277436
0.269523
0.261683
0.253923
0.246249
0.238672
0.231221
0.223723
0.216422
0.20928
0.202248
0.195316
0.188492
0.395192
0.386955
0.378453
0.370923
0.363172
0.355187
0.347239
0.339308
0.331357
0.32341
0.315483
0.307585
0.299723
0.291906
0.28414
0.276432
0.268788
0.261213
0.25371
0.24628
0.238914
0.231587
0.224558
0.217486
0.210522
0.20368
0.196944
0.190311
0.390667
0.38274
0.374155
0.366756
0.359322
0.351593
0.343882
0.336217
0.328543
0.32087
0.313221
0.305601
0.298017
0.290475
0.282981
0.27554
0.268159
0.260841
0.25359
0.246407
0.239298
0.232289
0.22542
0.218544
0.211765
0.20511
0.198558
0.192102
0.386017
0.378466
0.369929
0.362648
0.355515
0.348064
0.34059
0.333184
0.325784
0.318384
0.311006
0.303659
0.296346
0.289072
0.281843
0.274664
0.267538
0.260471
0.253464
0.246521
0.23965
0.232862
0.226203
0.219543
0.212965
0.206497
0.200126
0.193841
0.381348
0.374166
0.365769
0.358614
0.351761
0.344599
0.337368
0.330214
0.323083
0.315951
0.308838
0.301755
0.294706
0.287692
0.28072
0.273793
0.266915
0.26009
0.253322
0.246612
0.239969
0.233401
0.226942
0.220491
0.21411
0.207828
0.201633
0.195516
0.376702
0.369863
0.361674
0.354664
0.348071
0.3412
0.334219
0.327311
0.320441
0.313572
0.306718
0.299893
0.293099
0.286338
0.279615
0.272933
0.266296
0.259707
0.253169
0.246686
0.240264
0.23391
0.227646
0.221394
0.215205
0.209103
0.203081
0.197131
0.372105
0.365586
0.357648
0.350804
0.344455
0.33787
0.331143
0.324476
0.317859
0.311248
0.304647
0.298071
0.291526
0.28501
0.278528
0.272084
0.26568
0.25932
0.253006
0.246741
0.240533
0.234384
0.228312
0.222252
0.21625
0.210326
0.204473
0.198686
0.367579
0.361358
0.353697
0.347038
0.34092
0.334611
0.32814
0.32171
0.315339
0.308978
0.302624
0.296291
0.289986
0.283708
0.27746
0.271246
0.265067
0.258928
0.252831
0.246778
0.240775
0.234826
0.228941
0.223066
0.217246
0.211496
0.20581
0.200183
0.363139
0.357197
0.349827
0.343367
0.337471
0.331426
0.325209
0.319015
0.312881
0.306763
0.300649
0.294552
0.288479
0.282431
0.27641
0.270418
0.264458
0.258532
0.252644
0.246796
0.240992
0.235235
0.229533
0.223838
0.218195
0.212614
0.207091
0.201621
0.358796
0.353116
0.346044
0.339793
0.334111
0.328319
0.322353
0.316391
0.310486
0.304603
0.298721
0.292853
0.287005
0.281179
0.275377
0.269599
0.26385
0.258131
0.252446
0.246795
0.241183
0.235613
0.230089
0.224568
0.219095
0.213681
0.208318
0.203001
0.354557
0.349126
0.342353
0.336316
0.330842
0.325292
0.31957
0.313836
0.308155
0.302497
0.296841
0.291194
0.285563
0.279952
0.274361
0.268791
0.263245
0.257726
0.252235
0.246775
0.241349
0.235959
0.230608
0.225256
0.21995
0.214697
0.20949
0.204323
0.350427
0.345232
0.338756
0.332938
0.327666
0.322347
0.316862
0.311351
0.305886
0.300446
0.295008
0.289574
0.284154
0.278749
0.273361
0.267992
0.262642
0.257315
0.252012
0.246736
0.24149
0.236275
0.231092
0.225903
0.220758
0.215663
0.210608
0.205588
0.346412
0.341442
0.335258
0.329659
0.324583
0.319486
0.314229
0.308936
0.303681
0.298451
0.293222
0.287995
0.282776
0.277571
0.272379
0.267202
0.262041
0.256899
0.251778
0.24668
0.241607
0.23656
0.231541
0.226509
0.221521
0.21658
0.211674
0.206797
0.342515
0.337759
0.331861
0.32648
0.321595
0.316708
0.311672
0.30659
0.301538
0.296509
0.291482
0.286454
0.28143
0.276416
0.271413
0.266421
0.261442
0.256478
0.251531
0.246604
0.241699
0.236818
0.231959
0.227076
0.222241
0.217449
0.212687
0.207949
0.338738
0.334186
0.328566
0.323402
0.318702
0.314015
0.309191
0.304313
0.299457
0.294623
0.289789
0.284952
0.280116
0.275286
0.270464
0.265649
0.260845
0.256052
0.251272
0.246507
0.241762
0.237039
0.232339
0.227618
0.22293
0.218276
0.21365
0.209047
0.335084
0.330726
0.325375
0.320423
0.315902
0.311407
0.306785
0.302105
0.297439
0.29279
0.288142
0.283488
0.278832
0.274179
0.269531
0.264887
0.26025
0.255621
0.251002
0.246392
0.241792
0.237202
0.232625
0.228117
0.223587
0.219062
0.214563
0.21009
0.331553
0.32738
0.322289
0.317545
0.313198
0.308885
0.304456
0.299966
0.295481
0.291011
0.286541
0.282063
0.27758
0.273096
0.268614
0.264135
0.259659
0.255188
0.250723
0.246265
0.241816
0.237379
0.232963
0.228585
0.224189
0.219796
0.215424
0.211078
0.328147
0.32415
0.319308
0.314766
0.310587
0.306447
0.302202
0.297894
0.293585
0.289286
0.284986
0.280676
0.276358
0.272037
0.267715
0.263393
0.259072
0.254752
0.250436
0.246126
0.241822
0.237528
0.23325
0.229
0.224738
0.220477
0.216233
0.212011
0.324866
0.321037
0.316433
0.312087
0.308069
0.304094
0.300024
0.295891
0.291749
0.287614
0.283476
0.279327
0.275168
0.271003
0.266834
0.262662
0.258489
0.254315
0.250143
0.245973
0.241808
0.237651
0.233506
0.229381
0.225247
0.221114
0.216994
0.212893
0.321711
0.31804
0.313664
0.309507
0.305645
0.301826
0.297922
0.293955
0.289974
0.285996
0.282012
0.278016
0.274009
0.269992
0.26597
0.261943
0.257911
0.253877
0.249842
0.245808
0.241776
0.23775
0.233732
0.229729
0.225718
0.221707
0.217707
0.213722
0.31868
0.315161
0.311