/*--------------------------------*- C++ -*----------------------------------*\
  =========                 |
  \\      /  F ield         | OpenFOAM: The Open Source CFD Toolbox
   \\    /   O peration     | Website:  https://openfoam.org
    \\  /    A nd           | Version:  7
     \\/     M anipulation  |
\*---------------------------------------------------------------------------*/
FoamFile
{
    version     2.0;
    format      ascii;
    class       surfaceScalarField;
    location    "30";
    object      phi;
}
// * * * * * * * * * * * * * * * * * * * * * * * * * * * * * * * * * * * * * //

dimensions      [0 3 -1 0 0 0 0];

internalField   nonuniform List<scalar> 
16357
(
0.000160714
0.000162553
0.000164223
0.000165717
-1.27879e-06
0.000166996
0.000323063
-9.92736e-07
0.000167988
0.000312686
-5.97275e-07
0.000168586
0.000299503
-3.75044e-09
0.00016859
0.000283126
6.21043e-07
0.000167968
2.08417e-05
0.000262905
0.000170791
1.47182e-06
0.000166497
2.6093e-05
0.000238284
0.000104881
2.54691e-06
0.00016395
3.22138e-05
0.000208617
0.000109193
2.79015e-05
-0.00039044
3.86543e-06
0.000160084
3.92772e-05
0.000173205
0.000128589
-6.14104e-05
-0.000559887
5.4461e-06
0.000154638
4.73417e-05
0.00013131
0.00015026
-0.000164329
-0.00075152
7.30454e-06
0.000147334
5.64495e-05
8.21649e-05
0.000174214
-0.000282093
0.000388899
-0.000966205
-0.001948
9.4528e-06
0.000137881
6.66252e-05
2.49924e-05
0.000200387
-0.000415854
0.000438396
-0.00120421
-0.00229394
1.18993e-05
0.000125982
7.78747e-05
-4.09829e-05
0.00022863
-0.000566609
0.000489485
-0.00146507
0.000853095
-0.00265755
-0.00397049
1.46492e-05
0.000111332
9.0184e-05
-0.000116518
0.000258692
-0.000735117
0.000541058
-0.00174744
0.000917047
-0.00303354
0.00132834
-0.00438179
-0.00560288
1.77039e-05
9.36284e-05
0.000103517
-0.000202331
0.000290208
-0.000921809
0.000591859
-0.00204909
0.000974444
-0.00341613
0.00137301
-0.00478035
-0.00596538
2.10621e-05
7.25663e-05
0.000117812
-0.000299081
0.000322695
-0.00112669
0.000640573
-0.00236696
0.00102391
-0.00379946
0.00140492
-0.00516137
0.00173903
-0.00629948
-0.0071921
2.47191e-05
4.78473e-05
0.000132977
-0.000407339
0.000355559
-0.00134927
0.000685926
-0.00269733
0.00106448
-0.00417802
0.00142438
-0.00552126
0.00172963
-0.00660474
0.001975
-0.00743746
-0.00808866
2.86672e-05
1.918e-05
0.000148879
-0.00052755
0.000388126
-0.00158852
0.000726779
-0.00303599
0.00109567
-0.00454691
0.00143202
-0.00585761
0.00170882
-0.00688155
0.00192767
-0.0076563
0.00210375
-0.00826475
-0.00878647
3.28958e-05
-1.37158e-05
0.000165343
-0.000659998
0.000419672
-0.00184285
0.0007622
-0.00337851
0.00111733
-0.00490204
0.00142873
-0.00616901
0.00167812
-0.00713093
0.00187271
-0.0078509
0.00202966
-0.0084217
0.00216553
-0.00892233
-0.00940447
3.73905e-05
-5.11062e-05
0.000182149
-0.000804757
0.000449473
-0.00211017
0.000791511
-0.00372055
0.00112967
-0.0052402
0.00141555
-0.00645489
0.00163895
-0.00735433
0.00181155
-0.0080235
0.00195152
-0.00856166
0.00207439
-0.00904521
0.00219071
-0.00952078
-0.0100146
4.21326e-05
-9.32389e-05
0.000199034
-0.000961658
0.000476841
-0.00238798
0.000814296
-0.00405801
0.00113312
-0.00555902
0.00139359
-0.00671536
0.00159267
-0.00755342
0.00174542
-0.00817625
0.00187023
-0.00868646
0.00198134
-0.00915632
0.00208767
-0.00962711
0.00219329
-0.0101202
-0.0106397
4.70977e-05
-0.000140337
0.0002157
-0.00113026
0.000501167
-0.00267345
0.000830385
-0.00438722
0.00112829
-0.00585692
0.00136392
-0.00695099
0.00154047
-0.00772997
0.00167534
-0.00831112
0.00178653
-0.00879766
0.00188683
-0.00925661
0.00198364
-0.00972393
0.00208014
-0.0102167
0.00217863
-0.0107382
-0.0113043
0.00227728
5.22529e-05
-0.00019259
0.000231837
-0.00130984
0.000521953
-0.00296356
0.000839821
-0.00470509
0.00111586
-0.00613297
0.00132761
-0.00716274
0.00148342
-0.00788578
0.00160216
-0.00842986
0.00170102
-0.00889651
0.00179123
-0.00934682
0.00187886
-0.00981157
0.00196633
-0.0103042
0.00205543
-0.0108273
-0.0113933
0.0021444
5.75545e-05
-0.000250144
0.000247128
-0.00149942
0.000538827
-0.00325526
0.000842817
-0.00500908
0.00109661
-0.00638676
0.00128563
-0.00735176
0.00142243
-0.00802257
0.0015266
-0.00853403
0.00161415
-0.00898407
0.00169482
-0.00942749
0.0017735
-0.00989025
0.00185201
-0.0103827
0.00193172
-0.010907
-0.0114726
0.00201099
6.29462e-05
-0.00031309
0.00026127
-0.00169774
0.000551555
-0.00354555
0.000839708
-0.00529724
0.00107129
-0.00661834
0.00123889
-0.00751936
0.0013583
-0.00814198
0.00144921
-0.00862494
0.00152629
-0.00906115
0.00159782
-0.00949901
0.0016677
-0.00996013
0.00173728
-0.0104523
0.00180761
-0.0109774
-0.0115421
0.00187716
6.83583e-05
-0.000381449
0.000273984
-0.00190337
0.000560034
-0.0038316
0.000830916
-0.00556812
0.00104066
-0.00682809
0.00118819
-0.00766689
0.0012917
-0.00824549
0.00137047
-0.00870372
0.00143773
-0.0091284
0.00150041
-0.0095617
0.00156159
-0.0100213
0.00162225
-0.0105129
0.00168321
-0.0110383
-0.0116019
0.00174303
7.371e-05
-0.000455158
0.000285024
-0.00211468
0.000564276
-0.00411085
0.000816917
-0.00582076
0.00100544
-0.00701661
0.00113425
-0.0077957
0.00122319
-0.00833443
0.00129077
-0.0087713
0.0013487
-0.00918633
0.00140274
-0.00961574
0.00145528
-0.0100738
0.00150705
-0.0105647
0.00155863
-0.0110899
-0.011652
0.00160871
7.89119e-05
-0.00053407
0.000294187
-0.00232996
0.00056439
-0.00438105
0.000798209
-0.00605458
0.000966284
-0.00718468
0.00107769
-0.00790711
0.00115324
-0.00840997
0.00121039
-0.00882845
0.00125938
-0.00923532
0.00130494
-0.0096613
0.00134889
-0.0101178
0.00139175
-0.0106076
0.00143397
-0.0111321
-0.0116924
0.00147432
8.38715e-05
-0.000617942
0.000301317
-0.0025474
0.00056056
-0.00464029
0.0007753
-0.00626932
0.000923823
-0.0073332
0.00101907
-0.00800235
0.00108225
-0.00847316
0.00112959
-0.00887579
0.00116994
-0.00927567
0.00120712
-0.00969848
0.0012425
-0.0101532
0.00127647
-0.0106415
0.00130934
-0.011165
-0.011723
0.00133996
8.84967e-05
-0.000706439
0.000306305
-0.00276521
0.000553023
-0.00488701
0.000748684
-0.00646498
0.000878608
-0.00746313
0.000958836
-0.00808258
0.00101055
-0.00852487
0.00104858
-0.00891383
0.0010805
-0.00930759
0.00110937
-0.00972734
0.00113621
-0.01018
0.00116131
-0.0106666
0.00118484
-0.0111885
-0.0117439
0.00120576
9.27005e-05
-0.000799139
0.000309097
-0.00298161
0.000542054
-0.00511997
0.00071884
-0.00664177
0.000831139
-0.00757543
0.000897406
-0.00814885
0.000938389
-0.00856585
0.000967516
-0.00894295
0.000991175
-0.00933125
0.00101179
-0.00974796
0.00103011
-0.0101983
0.00104634
-0.0106829
0.00106056
-0.0112028
-0.0117552
0.00107182
9.64031e-05
-0.000895542
0.000309685
-0.00319489
0.000527947
-0.00533823
0.000686216
-0.00680003
0.000781858
-0.00767107
0.000835115
-0.0082021
0.000866006
-0.00859675
0.000886541
-0.00896349
0.000902062
-0.00934677
0.000914459
-0.00976035
0.000924279
-0.0102082
0.000931662
-0.0106902
0.000936611
-0.0112077
-0.0117568
0.000938264
9.95346e-05
-0.000995077
0.000308102
-0.00340346
0.000511006
-0.00554113
0.000651231
-0.00694026
0.000731156
-0.00775099
0.000772249
-0.00824319
0.000793578
-0.00861807
0.00080577
-0.00897568
0.000813244
-0.00935425
0.00081746
-0.00976457
0.000818803
-0.0102095
0.000817362
-0.0106888
0.000813074
-0.0112034
-0.0117489
0.000805185
0.000102035
-0.00109711
0.000304421
-0.00360584
0.000491534
-0.00572825
0.000614271
-0.007063
0.000679378
-0.0078161
0.000709058
-0.00827288
0.000721265
-0.00863028
0.000725311
-0.00897973
0.000724812
-0.00935375
0.000720879
-0.00976064
0.000713771
-0.0102024
0.000703537
-0.0106786
0.000690064
-0.0111899
-0.0117316
0.000672694
0.000103857
-0.00120097
0.000298742
-0.00380073
0.000469828
-0.00589933
0.000575687
-0.00716886
0.000626819
-0.00786723
0.000645746
-0.0082918
0.000649196
-0.00863373
0.00064525
-0.00897578
0.000636835
-0.00934533
0.000624784
-0.00974859
0.000609255
-0.0101869
0.000590262
-0.0106596
0.000567674
-0.0111674
-0.0117048
0.000540871
0.000104963
-0.00130593
0.000291187
-0.00398695
0.000446173
-0.00605432
0.000535795
-0.00725848
0.000573738
-0.00790518
0.000582486
-0.00830055
0.000577479
-0.00862872
0.000565665
-0.00896397
0.000549386
-0.00932905
0.00052925
-0.00972845
0.000505332
-0.0101629
0.000477612
-0.0106319
0.000445986
-0.0111357
-0.0116686
0.000409825
0.000105332
-0.00141126
0.000281894
-0.00416351
0.000420839
-0.00619327
0.000494881
-0.00733252
0.00052036
-0.00793066
0.000519427
-0.00829962
0.00050621
-0.00861551
0.000486628
-0.00894439
0.000462532
-0.00930496
0.000434347
-0.00970026
0.000402081
-0.0101307
0.000365673
-0.0105955
0.000325042
-0.0110951
-0.0116232
0.000279643
0.000104952
-0.00151622
0.000271011
-0.00432957
0.00039408
-0.00631633
0.000453198
-0.00739164
0.000466875
-0.00794433
0.000456693
-0.00828943
0.00043547
-0.00859428
0.000408205
-0.00891712
0.000376336
-0.00927309
0.000340145
-0.00966407
0.000299577
-0.0100901
0.000254561
-0.0105504
0.00020492
-0.0110455
-0.0115685
0.000150216
0.000103827
-0.00162004
0.000258701
-0.00448444
0.000366132
-0.00642376
0.000410973
-0.00743648
0.000413452
-0.00794681
0.00039439
-0.00827037
0.000365333
-0.00856523
0.000330458
-0.00888224
0.000290861
-0.00923349
0.000246707
-0.00961992
0.000197887
-0.0100413
0.000144376
-0.0104969
8.59412e-05
-0.010987
-0.0115032
2.06637e-05
0.00010197
-0.00172201
0.000245129
-0.0046276
0.000337214
-0.00651585
0.000368405
-0.00746767
0.000360231
-0.00793864
0.00033261
-0.00824275
0.000295862
-0.00852848
0.000253443
-0.00883983
0.000206168
-0.00918622
0.000154096
-0.00956785
9.70806e-05
-0.00998428
3.49056e-05
-0.0104347
-3.16494e-05
-0.0109205
-0.0114291
-0.000105712
9.9409e-05
-0.00182142
0.000230446
-0.00475864
0.000307527
-0.00659293
0.00032567
-0.00748581
0.000307336
-0.0079203
0.000271432
-0.00820685
0.000227114
-0.00848416
0.000177214
-0.00878993
0.00012231
-0.00913131
6.23566e-05
-0.00950789
-2.91154e-06
-0.00991901
-7.31452e-05
-0.0103645
-0.000149078
-0.0108445
-0.011347
-0.000231199
9.61774e-05
-0.0019176
0.0002148
-0.00487726
0.000277254
-0.00665539
0.000282923
-0.00749148
0.000254872
-0.00789225
0.000210922
-0.0081629
0.000159142
-0.00843238
0.00010182
-0.0087326
3.92979e-05
-0.00906879
-2.84224e-05
-0.00944017
-0.000101494
-0.00984594
-0.000180113
-0.0102859
-0.000264846
-0.0107598
-0.0112563
-0.000355595
9.23183e-05
-0.00200992
0.000198333
-0.00498328
0.000246561
-0.00670361
0.000240301
-0.00748522
0.000202927
-0.00785488
0.000151141
-0.00811111
9.19894e-05
-0.00837323
2.72489e-05
-0.00866786
-4.26966e-05
-0.00899885
-0.000118072
-0.0093648
-0.000199152
-0.00976486
-0.000286026
-0.010199
-0.000379259
-0.0106666
-0.0111569
-0.000478681
8.78799e-05
-0.0020978
0.000181181
-0.00507658
0.000215596
-0.00673803
0.000197922
-0.00746755
0.000151577
-0.00780853
9.21376e-05
-0.00805167
2.56309e-05
-0.00830672
-4.62661e-05
-0.00859597
-0.00012363
-0.00892148
-0.000206692
-0.00928174
-0.000295659
-0.00967589
-0.000390703
-0.010104
-0.000492307
-0.010565
-0.0110488
-0.000600338
8.29149e-05
-0.00218071
0.000163469
-0.00515713
0.000184494
-0.00675905
0.000155885
-0.00743894
0.000100893
-0.00775354
3.39276e-05
-0.00798471
-3.96702e-05
-0.00823313
-0.000118786
-0.00851685
-0.000203548
-0.00883672
-0.000294182
-0.0091911
-0.000390945
-0.00957913
-0.000494061
-0.0100009
-0.000603946
-0.0104551
-0.0109323
-0.000720468
7.74786e-05
-0.00225819
0.000145319
-0.00522497
0.000153378
-0.00676711
0.000114268
-0.00739983
5.09326e-05
-0.0076902
-2.33958e-05
-0.00791038
-0.000103991
-0.00815253
-0.000190303
-0.00843054
-0.000282367
-0.00874466
-0.000380482
-0.00909299
-0.000484945
-0.00947467
-0.000596026
-0.00988978
-0.000714107
-0.010337
-0.0108074
-0.000838998
7.16275e-05
-0.00232982
0.000126841
-0.00528019
0.00012236
-0.00676263
7.31494e-05
-0.00735062
1.19295e-06
-0.00761825
-7.97166e-05
-0.00782947
-0.000167348
-0.0080649
-0.00026075
-0.00833714
-0.000360032
-0.00864537
-0.000465536
-0.00898748
-0.000577599
-0.0093626
-0.000696537
-0.00977084
-0.00082272
-0.0102108
-0.0106743
-0.000955854
6.54181e-05
-0.00239524
0.000108143
-0.00532291
9.15316e-05
-0.00674602
3.26665e-05
-0.00729175
-4.65609e-05
-0.00753902
-0.000135104
-0.00774093
-0.000229684
-0.00797032
-0.000330085
-0.00823673
-0.000436496
-0.00853896
-0.000549293
-0.00887469
-0.000668847
-0.00924305
-0.000795529
-0.00964416
-0.000929716
-0.0100766
-0.010533
-0.00107097
5.89056e-05
-0.00245414
8.93233e-05
-0.00535333
6.09742e-05
-0.00671767
-7.18203e-06
-0.0072236
-9.39992e-05
-0.0074522
-0.000189515
-0.00764541
-0.000290954
-0.00786888
-0.000398265
-0.00812942
-0.000511713
-0.00842552
-0.0006317
-0.0087547
-0.000758632
-0.00911612
-0.000892941
-0.00950985
-0.00103503
-0.00993454
-0.0103838
-0.00118427
5.21427e-05
-0.00250629
7.04832e-05
-0.00537167
3.07642e-05
-0.00667795
-4.63173e-05
-0.00714652
-0.000140577
-0.00735794
-0.000242919
-0.00754307
-0.000351121
-0.00776068
-0.000465252
-0.00801529
-0.000585638
-0.00830513
-0.000712709
-0.00862763
-0.000846901
-0.00898192
-0.000988713
-0.00936804
-0.00113859
-0.00978467
-0.0102267
-0.0012957
4.51837e-05
-0.00255147
5.17216e-05
-0.00537821
1.0118e-06
-0.00662724
-8.47259e-05
-0.00706078
-0.000186229
-0.00725644
-0.000295284
-0.00743401
-0.000410152
-0.00764581
-0.000531007
-0.00789444
-0.000658229
-0.00817791
-0.000792273
-0.00849358
-0.000933602
-0.0088406
-0.00108279
-0.00921886
-0.00124033
-0.00962712
-0.0100618
-0.00140519
3.80918e-05
-0.00258956
3.31562e-05
-0.00537327
-2.83229e-05
-0.00656576
-0.000122369
-0.00696673
-0.000230924
-0.00714789
-0.000346583
-0.00731835
-0.000468014
-0.00752438
-0.000595494
-0.00776696
-0.000729445
-0.00804396
-0.000870346
-0.00835268
-0.00101868
-0.00869226
-0.0011751
-0.00906244
-0.0013402
-0.00946202
-0.00988933
-0.00151268
3.09293e-05
-0.00262049
1.50612e-05
-0.0053574
-5.70152e-05
-0.00649369
-0.000159223
-0.00686452
-0.000274641
-0.00703247
-0.000396788
-0.00719621
-0.000524678
-0.00739649
-0.000658676
-0.00763296
-0.000799246
-0.00790339
-0.000946887
-0.00820504
-0.0011021
-0.00853704
-0.00126561
-0.00889893
-0.00143813
-0.0092895
-0.00970934
-0.00161811
2.37021e-05
-0.00264419
-1.93924e-06
-0.00533176
-8.51136e-05
-0.00641051
-0.000195275
-0.00675436
-0.000317364
-0.00691038
-0.000445874
-0.0070677
-0.000580113
-0.00726225
-0.000720521
-0.00749255
-0.000867595
-0.00775631
-0.00102185
-0.00805078
-0.00118381
-0.00837509
-0.00135426
-0.00872848
-0.00153407
-0.0091097
-0.009522
-0.00172141
1.63304e-05
-0.00266052
-2.20056e-05
-0.00529343
-0.000112796
-0.00631972
-0.000230461
-0.0066367
-0.000359066
-0.00678178
-0.000493817
-0.00693295
-0.000634292
-0.00712177
-0.000780993
-0.00734585
-0.000934453
-0.00760285
-0.0010952
-0.00789003
-0.00126377
-0.00820652
-0.00144103
-0.00855123
-0.00162798
-0.00892275
-0.00932757
-0.00182241
8.96881e-06
-0.00266949
-4.04041e-05
-0.00524405
-0.00013988
-0.00622025
-0.000264758
-0.00651182
-0.000399723
-0.00664681
-0.000540592
-0.00679208
-0.000687186
-0.00697518
-0.000840061
-0.00719298
-0.000999783
-0.00744313
-0.0011669
-0.00772292
-0.00134194
-0.00803148
-0.00152586
-0.0083673
-0.00171978
-0.00872884
-0.00912631
-0.00192103
1.83553e-06
-0.00267133
-5.8198e-05
-0.00518402
-0.000166307
-0.00611214
-0.00029815
-0.00637998
-0.000439315
-0.00650565
-0.000586179
-0.00664521
-0.000738767
-0.00682259
-0.000897692
-0.00703405
-0.00106355
-0.00727727
-0.00123689
-0.00754958
-0.00141828
-0.00785009
-0.00160874
-0.00817685
-0.00180941
-0.00852816
-0.00891821
-0.00201751
-5.7304e-06
-0.0026656
-7.55328e-05
-0.00511422
-0.000192035
-0.00599564
-0.000330619
-0.00624139
-0.000477825
-0.00635844
-0.000630553
-0.00649249
-0.00078901
-0.00666414
-0.000953855
-0.00686921
-0.00112572
-0.00710541
-0.00130516
-0.00737013
-0.00149279
-0.00766246
-0.00168968
-0.00797995
-0.00189685
-0.00832099
-0.00870344
-0.00211163
-1.31232e-05
-0.00265247
-9.24308e-05
-0.00503491
-0.000217038
-0.00587103
-0.000362145
-0.00609629
-0.000515236
-0.00620535
-0.000673696
-0.00633403
-0.000837888
-0.00649994
-0.00100852
-0.00669858
-0.00118624
-0.00692769
-0.00137165
-0.00718472
-0.00156546
-0.00746866
-0.00176877
-0.00777664
-0.00198179
-0.00810797
-0.00848377
-0.00220146
-2.03158e-05
-0.00263216
-0.000108884
-0.00494634
-0.000241296
-0.00573862
-0.000392715
-0.00594487
-0.000551532
-0.00604653
-0.000715586
-0.00616997
-0.000885377
-0.00633015
-0.00106165
-0.0065223
-0.0012451
-0.00674424
-0.00143634
-0.00699348
-0.00163623
-0.00726877
-0.00184585
-0.00756702
-0.00206539
-0.00788844
-0.00826293
-0.00228622
-2.73484e-05
-0.00260481
-0.000124878
-0.00484881
-0.000264795
-0.0055987
-0.000422314
-0.00578735
-0.0005867
-0.00588214
-0.000756206
-0.00600047
-0.000931453
-0.00615491
-0.00111323
-0.00634053
-0.00130224
-0.00655523
-0.00149919
-0.00679653
-0.00170498
-0.00706298
-0.00192013
-0.00735187
-0.00214175
-0.00766681
-0.00801932
-0.00238536
-3.42194e-05
-0.00257059
-0.000140398
-0.00474263
-0.00028752
-0.00545158
-0.000450931
-0.00562394
-0.000620724
-0.00571235
-0.000795534
-0.00582566
-0.00097609
-0.00597435
-0.00116321
-0.0061534
-0.00135765
-0.00636079
-0.00156014
-0.00659404
-0.00177154
-0.00685158
-0.00199189
-0.00713153
-0.00222075
-0.00743795
-0.00777109
-0.00246898
-4.09191e-05
-0.00252967
-0.000155429
-0.00462812
-0.000309462
-0.00529754
-0.000478555
-0.00545484
-0.000653592
-0.00553731
-0.000833555
-0.00564569
-0.00101927
-0.00578864
-0.00121158
-0.00596109
-0.00141129
-0.00616109
-0.00161917
-0.00638616
-0.00183602
-0.00663473
-0.00206196
-0.00690558
-0.00229803
-0.00720188
-0.00751893
-0.00255019
-4.74357e-05
-0.00248223
-0.000169957
-0.0045056
-0.00033061
-0.00513689
-0.000505177
-0.00528028
-0.000685291
-0.0053572
-0.000870251
-0.00546073
-0.00106096
-0.00559793
-0.00125831
-0.00576374
-0.00146312
-0.00595628
-0.00167621
-0.00617307
-0.00189831
-0.00641263
-0.00212976
-0.00667413
-0.00237203
-0.00695962
-0.00726238
-0.00262857
-5.3757e-05
-0.00242848
-0.000183968
-0.00437539
-0.000350956
-0.0049699
-0.000530789
-0.00510044
-0.000715812
-0.00517218
-0.000905606
-0.00527094
-0.00110115
-0.00540238
-0.00130337
-0.00556152
-0.00151312
-0.00574653
-0.00173124
-0.00595495
-0.00195845
-0.00618541
-0.00219528
-0.00643731
-0.00244324
-0.00671166
-0.00700132
-0.0027043
-5.98715e-05
-0.00236861
-0.000197451
-0.00423781
-0.000370492
-0.00479686
-0.000555384
-0.00491555
-0.000745141
-0.00498242
-0.000939604
-0.00507647
-0.00113982
-0.00520217
-0.00134674
-0.00535459
-0.00156126
-0.00553201
-0.00178423
-0.00573199
-0.00201638
-0.00595326
-0.00225838
-0.0061953
-0.00251164
-0.0064584
-0.00673561
-0.00277735
-6.57705e-05
-0.00230284
-0.000210396
-0.00409319
-0.000389212
-0.00461805
-0.000578954
-0.00472581
-0.000773269
-0.00478811
-0.00097223
-0.00487751
-0.00117694
-0.00499746
-0.0013884
-0.00514314
-0.00160751
-0.0053129
-0.00183514
-0.00550435
-0.00207206
-0.00571634
-0.00231903
-0.00594834
-0.0025773
-0.00620013
-0.00646521
-0.00284769
-7.14512e-05
-0.00223138
-0.000222794
-0.00394184
-0.000407111
-0.00443373
-0.000601494
-0.00453143
-0.000800186
-0.00458941
-0.00100347
-0.00467423
-0.00121251
-0.00478842
-0.00142831
-0.00492734
-0.00165183
-0.00508938
-0.00188395
-0.00527223
-0.00212546
-0.00547483
-0.00237716
-0.00569663
-0.00264022
-0.00593707
-0.00619018
-0.00291525
-7.69048e-05
-0.00215448
-0.000234638
-0.00378411
-0.000424182
-0.00424419
-0.000622996
-0.00433261
-0.000825883
-0.00438653
-0.00103331
-0.0044668
-0.00124649
-0.00457524
-0.00146646
-0.00470736
-0.00169421
-0.00486163
-0.00193062
-0.00503582
-0.00217653
-0.00522892
-0.00243276
-0.0054404
-0.00270039
-0.00566944
-0.00591061
-0.00297997
-8.21226e-05
-0.00207236
-0.000245921
-0.00362031
-0.000440423
-0.00404968
-0.000643457
-0.00412958
-0.000850351
-0.00417963
-0.00106174
-0.00425541
-0.00127888
-0.0043581
-0.00150284
-0.0044834
-0.00173462
-0.00462985
-0.00197514
-0.0047953
-0.00222525
-0.00497882
-0.0024858
-0.00517985
-0.0027578
-0.00539744
-0.00562663
-0.00304178
-8.70974e-05
-0.00198526
-0.000256637
-0.00345077
-0.000455829
-0.00385049
-0.000662871
-0.00392254
-0.000873581
-0.00396892
-0.00108874
-0.00404025
-0.00130965
-0.00413719
-0.00153741
-0.00425564
-0.00177304
-0.00439422
-0.00201747
-0.00455086
-0.00227158
-0.00472471
-0.00253624
-0.00491519
-0.00281242
-0.00512126
-0.00533841
-0.00310064
-9.1823e-05
-0.00189344
-0.00026678
-0.00327581
-0.000470396
-0.00364688
-0.000681234
-0.0037117
-0.000895565
-0.00375459
-0.00111431
-0.00382151
-0.0013388
-0.00391271
-0.00157016
-0.00402428
-0.00180944
-0.00415494
-0.00205759
-0.00430271
-0.0023155
-0.0044668
-0.00258406
-0.00464663
-0.00286421
-0.00484111
-0.00504612
-0.0031565
-9.62938e-05
-0.00179714
-0.000276346
-0.00309576
-0.000484121
-0.0034391
-0.00069854
-0.00349728
-0.000916297
-0.00353684
-0.00113843
-0.00359938
-0.0013663
-0.00368483
-0.00160107
-0.00378951
-0.00184381
-0.00391221
-0.00209547
-0.00405105
-0.00235698
-0.00420529
-0.00262922
-0.00437439
-0.00291315
-0.00455719
-0.00474997
-0.0032093
-0.000100505
-0.00169664
-0.000285331
-0.00291094
-0.000497002
-0.00322743
-0.000714787
-0.00327949
-0.000935769
-0.00331585
-0.00116109
-0.00337405
-0.00139216
-0.00345377
-0.00163013
-0.00355154
-0.00187612
-0.00366622
-0.00213109
-0.00379607
-0.00239599
-0.0039404
-0.00267171
-0.00409866
-0.00295919
-0.00426971
-0.00445016
-0.003259
-0.000104452
-0.00159219
-0.000293732
-0.00272166
-0.000509037
-0.00301213
-0.00072997
-0.00305856
-0.000953975
-0.00309185
-0.00118229
-0.00314574
-0.00141634
-0.00321972
-0.00165732
-0.00331055
-0.00190635
-0.00341719
-0.00216443
-0.00353799
-0.0024325
-0.00367232
-0.00271149
-0.00381968
-0.00300231
-0.00397889
-0.00414691
-0.00330557
-0.000108132
-0.00148405
-0.000301545
-0.00252824
-0.000520222
-0.00279345
-0.000744086
-0.0028347
-0.00097091
-0.00286502
-0.00120201
-0.00291464
-0.00143884
-0.00298288
-0.00168263
-0.00306677
-0.0019345
-0.00316532
-0.00219547
-0.00327702
-0.0024665
-0.00340129
-0.00274854
-0.00353764
-0.00304248
-0.00368494
-0.00384043
-0.00334895
-0.00011154
-0.00137251
-0.000308767
-0.00233102
-0.000530556
-0.00257166
-0.000757132
-0.00260812
-0.000986568
-0.00263559
-0.00122025
-0.00268095
-0.00145966
-0.00274347
-0.00170604
-0.0028204
-0.00196053
-0.00291083
-0.00222418
-0.00301337
-0.00249796
-0.00312751
-0.00278282
-0.00325279
-0.00307967
-0.00338809
-0.00353097
-0.00338913
-0.000114675
-0.00125784
-0.000315397
-0.00213029
-0.000540039
-0.00234702
-0.000769106
-0.00237905
-0.00100094
-0.00240375
-0.001237
-0.00244489
-0.00147878
-0.0025017
-0.00172754
-0.00257164
-0.00198445
-0.00265392
-0.00225055
-0.00274726
-0.00252686
-0.0028512
-0.00281432
-0.00296533
-0.00311384
-0.00308857
-0.00321875
-0.00342606
-0.000117533
-0.00114031
-0.000321432
-0.00192639
-0.000548667
-0.00211978
-0.000780005
-0.00214772
-0.00101403
-0.00216972
-0.00125226
-0.00220667
-0.0014962
-0.00225776
-0.00174712
-0.00232071
-0.00200623
-0.00239482
-0.00227457
-0.00247891
-0.00255317
-0.0025726
-0.002843
-0.0026755
-0.00314496
-0.00278661
-0.00290401
-0.00345971
-0.000120112
-0.00102019
-0.00032687
-0.00171964
-0.000556439
-0.00189021
-0.000789826
-0.00191433
-0.00102583
-0.00193371
-0.00126601
-0.00196649
-0.0015119
-0.00201187
-0.00176478
-0.00206783
-0.00202586
-0.00213374
-0.00229622
-0.00220855
-0.00257689
-0.00229193
-0.00286886
-0.00238354
-0.00317302
-0.00248244
-0.00258699
-0.00349004
-0.00012241
-0.000897785
-0.00033171
-0.00151034
-0.000563355
-0.00165857
-0.000798567
-0.00167912
-0.00103634
-0.00169594
-0.00127827
-0.00172456
-0.00152589
-0.00176425
-0.00178051
-0.00181321
-0.00204335
-0.0018709
-0.0023155
-0.0019364
-0.002598
-0.00200943
-0.00289186
-0.00208968
-0.00319798
-0.00217632
-0.00226794
-0.00351704
-0.000124426
-0.000773359
-0.00033595
-0.00129881
-0.000569413
-0.00142511
-0.000806226
-0.0014423
-0.00104555
-0.00145662
-0.00128901
-0.0014811
-0.00153816
-0.0015151
-0.00179431
-0.00155707
-0.00205868
-0.00160653
-0.00233239
-0.0016627
-0.00261649
-0.00172533
-0.002912
-0.00179417
-0.00321983
-0.00186849
-0.00194711
-0.00354066
-0.000126157
-0.000647202
-0.000339589
-0.00108538
-0.000574612
-0.00119008
-0.000812802
-0.00120411
-0.00105346
-0.00121596
-0.00129824
-0.00123633
-0.0015487
-0.00126463
-0.00180616
-0.0012996
-0.00207186
-0.00134083
-0.0023469
-0.00138765
-0.00263236
-0.00143987
-0.00292927
-0.00149726
-0.00323855
-0.00155921
-0.00162476
-0.00356089
-0.000127603
-0.000519598
-0.000342626
-0.000870357
-0.000578951
-0.000953758
-0.000818291
-0.000964774
-0.00106007
-0.000974182
-0.00130595
-0.000990442
-0.00155751
-0.00101307
-0.00181608
-0.00104104
-0.00208288
-0.00107403
-0.00235904
-0.0011115
-0.00264562
-0.00115328
-0.00294368
-0.00119921
-0.00325413
-0.00124876
-0.00130118
-0.00357771
-0.000128763
-0.000390835
-0.00034506
-0.00065406
-0.000582428
-0.000716391
-0.000822693
-0.000724509
-0.00106537
-0.000731507
-0.00131214
-0.000743667
-0.0015646
-0.000760618
-0.00182405
-0.000781587
-0.00209175
-0.000806328
-0.00236881
-0.00083444
-0.00265629
-0.000865796
-0.00295525
-0.000900248
-0.00326661
-0.000937401
-0.000976675
-0.00359111
-0.000129635
-0.000261201
-0.00034689
-0.000436804
-0.000585043
-0.000478238
-0.000826005
-0.000483547
-0.00106936
-0.000488152
-0.00131681
-0.000496217
-0.00156994
-0.000507488
-0.00183007
-0.000521451
-0.00209846
-0.000537941
-0.00237621
-0.000556691
-0.00266439
-0.000577614
-0.00296403
-0.000600607
-0.00327604
-0.000625395
-0.000651555
-0.00360116
-0.000130218
-0.000130982
-0.000348115
-0.000218907
-0.000586795
-0.000239558
-0.000828226
-0.000242116
-0.00107204
-0.000244339
-0.00131995
-0.000248309
-0.00157354
-0.000253898
-0.00183414
-0.000260848
-0.00210301
-0.000269076
-0.00238125
-0.000278449
-0.00266994
-0.000288926
-0.00297009
-0.000300458
-0.00328256
-0.000312916
-0.000326085
-0.00360803
-0.000130513
-4.6898e-07
-0.000348735
-6.86114e-07
-0.000587682
-6.1147e-07
-0.000829353
-4.44799e-07
-0.0010734
-2.89351e-07
-0.00132155
-1.62724e-07
-0.00157538
-6.48116e-08
-0.00183624
6.98743e-09
-0.00210537
5.39558e-08
-0.00238389
7.7789e-08
-0.0026729
7.7351e-08
-0.0029734
5.03434e-08
-0.00328632
-3.98996e-09
-1.31075e-07
-0.00361227
-0.000130519
0.00013005
-0.000348748
0.000217543
-0.000587704
0.000238344
-0.000829385
0.000241237
-0.00107345
0.000243774
-0.00132161
0.000248001
-0.00157547
0.00025379
-0.00183635
0.00026089
-0.00210552
0.000269222
-0.0023841
0.000278658
-0.00267318
0.000289163
-0.00297383
0.000300698
-0.00328698
0.000313143
0.000326339
-0.00361345
-0.000130236
0.000260286
-0.000348155
0.000435462
-0.00058686
0.000477049
-0.000828322
0.000482699
-0.00107217
0.000487626
-0.00132013
0.000495958
-0.00157378
0.000507443
-0.00183447
0.000521573
-0.00210344
0.000538191
-0.00238182
0.00055704
-0.0026707
0.000578047
-0.00297113
0.000601127
-0.00328402
0.000626033
0.000652366
-0.00361005
-0.000129663
0.000389949
-0.000346956
0.000652755
-0.00058515
0.000715243
-0.000826162
0.000723711
-0.00106958
0.000731042
-0.00131711
0.000743485
-0.00157033
0.000760667
-0.00183058
0.000781825
-0.00209911
0.000806722
-0.00237704
0.00083497
-0.00266545
0.000866451
-0.00296535
0.000901034
-0.00327766
0.000938335
0.000977754
-0.00360304
-0.000128801
0.00051875
-0.00034515
0.000869104
-0.000582574
0.000952667
-0.000822905
0.000964042
-0.00106566
0.000973799
-0.00131253
0.000990358
-0.0015651
0.00101324
-0.00182469
0.00104141
-0.00209255
0.00107458
-0.00236978
0.0011122
-0.00265745
0.00115412
-0.00295658
0.00120017
-0.00326807
0.00124983
0.0013023
-0.00359262
-0.000127651
0.000646401
-0.000342738
0.00108419
-0.000579131
0.00118906
-0.000818552
0.00120346
-0.00106042
0.00121567
-0.00130642
0.00123635
-0.00155811
0.00126493
-0.00181681
0.00130012
-0.00208375
0.00134152
-0.00236005
0.00138849
-0.00264675
0.00144082
-0.00294488
0.00149829
-0.00325533
0.00156028
0.0016258
-0.00357883
-0.000126214
0.000772615
-0.00033972
0.0012977
-0.000574823
0.00142416
-0.000813103
0.00144174
-0.00105387
0.00145643
-0.00129876
0.00148125
-0.00154935
0.00151551
-0.00180694
0.0015577
-0.00207275
0.00160733
-0.00234788
0.00166362
-0.00263338
0.00172633
-0.00293028
0.00179519
-0.00323948
0.00186948
0.00194801
-0.00356169
-0.00012449
0.000897105
-0.000336097
0.0015093
-0.000569649
0.00165771
-0.000806561
0.00167866
-0.00104599
0.00169587
-0.00128957
0.00172482
-0.00153883
0.00176478
-0.00179508
0.00181395
-0.00205954
0.00187178
-0.00233328
0.00193737
-0.00261737
0.00201042
-0.00291281
0.00209063
-0.00322053
0.0021772
0.00226871
-0.00354123
-0.00012248
0.00101958
-0.000331871
0.0017187
-0.000563612
0.00188946
-0.000798926
0.00191397
-0.00103681
0.00193375
-0.00127885
0.00196686
-0.00152657
0.0020125
-0.00178126
0.00206865
-0.00204414
0.00213466
-0.00231628
0.00220951
-0.00259873
0.00229287
-0.00289249
0.0023844
-0.0031985
0.00248321
0.00258764
-0.00351743
-0.000120186
0.00113977
-0.000327042
0.00192555
-0.000556711
0.00211912
-0.000790201
0.00214746
-0.00102632
0.00216987
-0.0012666
0.00220714
-0.00151256
0.00225847
-0.00176549
0.00232157
-0.00202657
0.00239574
-0.00229689
0.00247983
-0.00257748
0.00257345
-0.00286934
0.00267625
-0.0031734
0.00278726
0.00290457
-0.00349032
-0.00011761
0.00125738
-0.000321611
0.00212955
-0.000548948
0.00234646
-0.000780389
0.0023789
-0.00101452
0.002404
-0.00125283
0.00244545
-0.00149683
0.00250246
-0.00174777
0.00257252
-0.00200685
0.00265482
-0.00227514
0.00274812
-0.00255365
0.00285197
-0.00284337
0.00296598
-0.00314524
0.00308913
0.00321924
-0.00345991
-0.000114754
0.00137213
-0.000315581
0.00233038
-0.000540325
0.00257121
-0.000769493
0.00260807
-0.00100142
0.00263593
-0.00123755
0.00268158
-0.00147937
0.00274428
-0.00172812
0.00282127
-0.00198499
0.00291169
-0.00225102
0.00301415
-0.00252723
0.00312818
-0.0028146
0.00325335
-0.00311404
0.00338858
0.00353141
-0.00342621
-0.00011162
0.00148376
-0.000308953
0.00252771
-0.000530844
0.0027931
-0.000757515
0.00283474
-0.000987032
0.00286544
-0.00122077
0.00291532
-0.0014602
0.00298371
-0.00170656
0.00306763
-0.00196099
0.00316613
-0.00222456
0.00327772
-0.00249826
0.00340187
-0.00278303
0.00353812
-0.00307982
0.00368537
0.00384084
-0.00338925
-0.000108211
0.00159197
-0.00030173
0.00272123
-0.000520507
0.00301187
-0.00074446
0.00305869
-0.000971355
0.00309234
-0.0012025
0.00314646
-0.00143933
0.00322055
-0.00168308
0.00331138
-0.00193489
0.00341793
-0.00219578
0.00353861
-0.00246673
0.00367283