/*--------------------------------*- C++ -*----------------------------------*\
  =========                 |
  \\      /  F ield         | OpenFOAM: The Open Source CFD Toolbox
   \\    /   O peration     | Website:  https://openfoam.org
    \\  /    A nd           | Version:  7
     \\/     M anipulation  |
\*---------------------------------------------------------------------------*/
FoamFile
{
    version     2.0;
    format      ascii;
    class       volVectorField;
    location    "30";
    object      U;
}
// * * * * * * * * * * * * * * * * * * * * * * * * * * * * * * * * * * * * * //

dimensions      [0 1 -1 0 0 0 0];

internalField   nonuniform List<vector> 
8330
(
(-0.0190994 0.0261516 -1.90668e-21)
(-0.0201198 0.0258745 4.18389e-21)
(-0.0211316 0.0255221 6.02165e-21)
(-0.022127 0.0250997 -6.43326e-21)
(-0.0230945 0.024609 -9.29819e-21)
(-0.0414713 0.0473317 -8.54221e-21)
(-0.0240182 0.0240481 9.96729e-21)
(-0.0412023 0.0452338 5.02747e-21)
(-0.0248748 0.023411 -1.81524e-20)
(-0.0404101 0.0429194 1.10823e-20)
(-0.0256322 0.0226879 -4.56019e-21)
(-0.0389961 0.0404043 -1.08716e-20)
(-0.0262602 0.0218782 5.54021e-21)
(-0.036842 0.0376981 -1.00531e-20)
(-0.0115713 0.0414967 -2.60581e-23)
(-0.0267294 0.0209782 -1.1716e-20)
(-0.0338193 0.0348068 1.38817e-20)
(-0.00105405 0.0377359 1.01266e-20)
(-0.026996 0.0199759 2.74383e-20)
(-0.0297978 0.0317467 -1.41518e-20)
(0.0116205 0.033995 1.3721e-20)
(0.0970224 0.033393 -1.61457e-21)
(-0.0270106 0.0188613 1.9921e-20)
(-0.0246386 0.0285386 3.46078e-21)
(0.0266912 0.0303565 -3.47594e-20)
(0.126729 0.0309593 -1.1727e-21)
(-0.0267195 0.0176275 1.13133e-20)
(-0.0181952 0.0252086 9.10727e-21)
(0.0443933 0.0269149 2.66251e-20)
(0.160592 0.0293232 1.83134e-20)
(-0.0260652 0.0162707 -3.51735e-20)
(-0.010316 0.0217902 4.06172e-20)
(0.0649522 0.0237788 -2.21371e-20)
(0.198756 0.028699 -1.35123e-20)
(0.385731 0.0459836 -2.86775e-21)
(-0.0249862 0.0147912 6.74337e-20)
(-0.000847585 0.0183272 -4.15089e-20)
(0.0885751 0.0210742 2.50193e-20)
(0.241254 0.0293133 -4.96273e-21)
(0.446965 0.052387 4.41641e-21)
(-0.023418 0.0131938 -5.86838e-20)
(0.0103635 0.0148746 3.93157e-20)
(0.115441 0.0189474 6.96998e-21)
(0.287968 0.0313907 1.21731e-20)
(0.511008 0.0607199 -2.98622e-22)
(0.744955 0.100219 1.18369e-21)
(-0.0212939 0.011489 1.778e-20)
(0.0234673 0.011501 -6.92538e-20)
(0.145686 0.017567 -1.57019e-20)
(0.338608 0.0351308 1.02922e-20)
(0.576705 0.0708722 -6.2908e-21)
(0.812241 0.114099 -1.73276e-22)
(1.00492 0.152807 -2.25225e-21)
(-0.018546 0.00969319 -3.49578e-20)
(0.0386072 0.00828974 6.6962e-20)
(0.179389 0.0171232 -2.15871e-20)
(0.392691 0.0406791 -2.17217e-20)
(0.642814 0.0826383 5.74687e-22)
(0.875758 0.128558 -5.22014e-22)
(1.05529 0.166511 -2.74283e-21)
(-0.0151063 0.00782888 2.70831e-20)
(0.0559162 0.00534061 1.94994e-20)
(0.216547 0.0178226 3.15133e-20)
(0.449554 0.0481027 2.70882e-20)
(0.708115 0.0957536 -3.13251e-21)
(0.934685 0.143303 1.10061e-21)
(1.09934 0.179736 3.84513e-21)
(1.20169 0.201767 -1.44251e-20)
(-0.0109075 0.00592489 -2.28311e-21)
(0.0755109 0.0027715 -2.91958e-20)
(0.25706 0.0198761 -3.39477e-20)
(0.508386 0.0573793 -6.87348e-21)
(0.771503 0.109934 8.366e-21)
(0.9885 0.158098 -7.52728e-22)
(1.13728 0.192394 2.54978e-21)
(1.22424 0.211384 -8.28769e-21)
(1.26708 0.218074 -4.57229e-20)
(-0.00588425 0.00401636 -2.01444e-20)
(0.0974855 0.000719482 -4.57327e-20)
(0.30071 0.0234801 4.35296e-20)
(0.568282 0.0684035 -7.98948e-21)
(0.832051 0.124909 -2.75107e-22)
(1.03695 0.172766 -4.05927e-22)
(1.16948 0.20445 7.66747e-23)
(1.24207 0.220323 2.41429e-20)
(1.27471 0.224396 -1.4937e-20)
(1.28492 0.22114 -3.83842e-20)
(2.6065e-05 0.00214476 3.50132e-21)
(0.121903 -0.000659047 2.16626e-20)
(0.347162 0.0287954 3.51097e-20)
(0.628315 0.0810089 -4.80806e-21)
(0.889044 0.140439 1.34952e-20)
(1.07999 0.18718 1.90488e-21)
(1.19641 0.215901 -6.28959e-21)
(1.25582 0.228665 -2.07229e-20)
(1.27969 0.230302 3.94325e-20)
(1.28488 0.225456 4.94632e-20)
(1.28175 0.217371 6.97563e-20)
(0.00688234 0.000358184 6.29039e-21)
(0.148784 -0.00119018 1.01112e-20)
(0.395962 0.0359277 -8.74552e-20)
(0.687591 0.0949961 2.40396e-20)
(0.941977 0.156322 -1.45424e-20)
(1.11774 0.20126 -3.38514e-21)
(1.21857 0.226773 3.79907e-21)
(1.2661 0.236494 7.2397e-21)
(1.2825 0.235885 3.34886e-20)
(1.28365 0.22962 -8.20129e-20)
(1.2786 0.220633 -1.57968e-20)
(1.27192 0.210299 -4.27629e-20)
(0.0147388 -0.00128817 1.02962e-20)
(0.1781 -0.000687343 -1.84428e-20)
(0.446566 0.0449179 3.10178e-20)
(0.745304 0.110157 -2.23319e-20)
(0.990539 0.172399 -2.20843e-20)
(1.15044 0.214956 -4.03439e-21)
(1.23647 0.237109 8.9353e-21)
(1.27344 0.243893 -1.3301e-20)
(1.28357 0.241225 -1.18464e-20)
(1.28149 0.233689 4.53802e-20)
(1.27497 0.22389 -6.34076e-21)
(1.26766 0.213105 3.48446e-20)
(1.26042 0.202572 -3.05932e-20)
(0.0236437 -0.00273143 -5.20059e-20)
(0.209761 0.00104036 3.19308e-20)
(0.498359 0.0557422 -2.25961e-20)
(0.800767 0.126293 3.27765e-21)
(1.03458 0.188543 2.97065e-20)
(1.1784 0.228246 2.42868e-21)
(1.25062 0.24696 -1.63674e-20)
(1.27832 0.250942 1.72176e-20)
(1.28323 0.246392 -5.56625e-21)
(1.27859 0.237705 -5.63726e-20)
(1.27097 0.22716 3.13006e-20)
(1.26318 0.215936 5.10996e-21)
(1.25576 0.204867 2.72587e-20)
(1.24985 0.192169 -8.98602e-21)
(0.0336375 -0.0039005 4.7374e-20)
(0.24361 0.0041767 8.0066e-21)
(0.550697 0.0683233 1.41431e-20)
(0.853429 0.143226 -1.23574e-20)
(1.07408 0.20466 -6.89648e-21)
(1.20197 0.24113 -2.48772e-21)
(1.26149 0.256386 -5.70115e-21)
(1.28114 0.257714 -2.0544e-20)
(1.28175 0.251441 1.72324e-20)
(1.27511 0.241701 2.62038e-20)
(1.26665 0.230458 -3.46745e-20)
(1.25851 0.218792 -2.1704e-20)
(1.25095 0.207189 8.73741e-20)
(1.24487 0.194366 5.40989e-20)
(0.0447505 -0.00471596 2.53268e-20)
(0.279428 0.00888537 -3.93538e-20)
(0.602934 0.082545 4.46298e-20)
(0.90287 0.160798 9.5886e-21)
(1.10912 0.220677 -2.23199e-21)
(1.22154 0.25362 -2.7156e-21)
(1.26951 0.265445 1.48289e-20)
(1.28223 0.264273 2.66155e-20)
(1.27934 0.256416 -4.24306e-20)
(1.27114 0.245698 3.26947e-20)
(1.26205 0.233788 -3.13803e-20)
(1.25364 0.221672 4.81192e-20)
(1.24599 0.209536 -5.64301e-20)
(1.23977 0.196578 2.22009e-20)
(0.0569993 -0.00509056 -4.9248e-20)
(0.31693 0.015298 -5.88968e-20)
(0.654455 0.0982683 5.84335e-21)
(0.948798 0.178876 7.37695e-21)
(1.13985 0.236543 9.57907e-21)
(1.23746 0.265738 3.40527e-22)
(1.27506 0.274194 3.29344e-21)
(1.28189 0.270673 -3.13267e-20)
(1.27616 0.261351 -5.56794e-21)
(1.26676 0.249711 2.3168e-20)
(1.2572 0.237152 2.68098e-20)
(1.24859 0.224572 -1.7385e-20)
(1.24088 0.211901 -7.46865e-20)
(1.23454 0.198799 -4.87736e-20)
(0.0703837 -0.00493071 -1.50324e-21)
(0.355781 0.0235056 6.68198e-20)
(0.704695 0.115344 2.66007e-20)
(0.991027 0.197345 -2.15244e-20)
(1.16647 0.252222 8.11589e-21)
(1.25011 0.277511 7.83493e-22)
(1.27848 0.282686 -5.23155e-21)
(1.28034 0.276958 2.72284e-20)
(1.27234 0.26627 2.05723e-20)
(1.26201 0.253745 -2.37401e-20)
(1.25211 0.240547 -3.91659e-21)
(1.24336 0.227487 2.78299e-20)
(1.23562 0.214281 4.01642e-20)
(1.22918 0.201023 1.3437e-20)
(0.0848831 -0.00413892 1.32464e-20)
(0.395603 0.0335542 -5.10207e-21)
(0.753153 0.13362 -5.07801e-20)
(1.02946 0.216106 -1.40625e-20)
(1.18922 0.267687 -1.8259e-20)
(1.25982 0.28897 -1.03968e-21)
(1.28005 0.290967 -2.85029e-21)
(1.27777 0.283164 -1.3519e-20)
(1.26797 0.271188 9.82313e-21)
(1.25694 0.257805 -1.91748e-20)
(1.2468 0.243968 1.16238e-20)
(1.23795 0.230409 -1.41221e-20)
(1.2302 0.216668 1.03287e-21)
(1.22369 0.203242 3.53958e-20)
(0.100454 -0.00261725 2.58367e-20)
(0.435997 0.0454461 -3.97884e-20)
(0.799405 0.152949 3.78012e-21)
(1.06409 0.235073 1.974e-20)
(1.20833 0.282922 1.39431e-20)
(1.2669 0.300144 1.30806e-21)
(1.28002 0.299077 -8.61026e-21)
(1.27431 0.289315 -4.04358e-21)
(1.2631 0.276113 1.32974e-20)
(1.25156 0.261885 1.72765e-20)
(1.24126 0.247408 -2.88748e-20)
(1.23235 0.23333 -3.58808e-20)
(1.22463 0.219056 1.31094e-20)
(1.21806 0.205448 -3.73032e-20)
(0.117028 -0.000271439 2.35715e-20)
(0.476547 0.0591444 1.40364e-20)
(0.843102 0.173186 2.79795e-20)
(1.09493 0.254171 -7.82391e-21)
(1.22405 0.297914 -5.39725e-21)
(1.27163 0.31106 -1.37683e-21)
(1.27861 0.307047 9.86878e-21)
(1.27009 0.29543 2.12662e-20)
(1.2578 0.281047 -2.19867e-20)
(1.24589 0.265981 2.17852e-20)
(1.23549 0.250855 4.06903e-20)
(1.22657 0.23624 4.07153e-20)
(1.21889 0.221435 -3.43238e-20)
(1.21229 0.207631 8.52021e-21)
(0.134513 0.00298471 -3.00936e-20)
(0.51684 0.0745789 1.18855e-20)
(0.883968 0.194196 -2.0026e-20)
(1.12206 0.27333 -3.26281e-21)
(1.23665 0.312658 6.53163e-21)
(1.27426 0.321745 -2.2294e-22)
(1.27598 0.314902 4.01293e-22)
(1.26519 0.301518 -1.05195e-20)
(1.25208 0.285987 1.62767e-20)
(1.23993 0.270083 -2.14614e-20)
(1.22949 0.254299 -2.30934e-20)
(1.22059 0.239129 -3.21708e-20)
(1.21299 0.223798 7.81162e-21)
(1.20637 0.209784 9.97365e-21)
(0.152793 0.00722512 1.69419e-21)
(0.556478 0.0916535 8.00765e-21)
(0.921797 0.215849 -1.23708e-20)
(1.1456 0.292485 -2.15899e-21)
(1.24634 0.327145 -1.13674e-21)
(1.27501 0.332216 3.51941e-22)
(1.27227 0.322658 2.30915e-21)
(1.25968 0.30758 8.62322e-21)
(1.24598 0.290924 -7.77891e-21)
(1.23369 0.274179 -1.21485e-20)
(1.22326 0.257726 2.7578e-21)
(1.21441 0.241987 1.63737e-21)
(1.20693 0.226133 2.95934e-20)
(1.20031 0.211895 -1.62931e-20)
(0.171731 0.012508 1.53802e-21)
(0.59508 0.110252 -3.2832e-21)
(0.956444 0.238021 6.92246e-21)
(1.16566 0.311577 3.16912e-21)
(1.25336 0.34137 -5.94681e-22)
(1.27408 0.342488 -1.51203e-23)
(1.26759 0.330324 -1.79961e-21)
(1.25361 0.313615 -4.43495e-22)
(1.23949 0.295848 1.27898e-21)
(1.22715 0.278255 8.3055e-21)
(1.21679 0.261124 2.89542e-22)
(1.20804 0.244802 7.61733e-22)
(1.20069 0.228431 -1.15249e-20)
(1.19411 0.213954 -6.775e-21)
(0.191173 0.0188733 1.35643e-21)
(0.632297 0.130242 -2.75586e-21)
(0.987817 0.260594 6.4558e-21)
(1.18239 0.330547 2.9613e-21)
(1.25792 0.355326 -4.35653e-22)
(1.27162 0.352571 -5.26569e-23)
(1.26205 0.337902 -1.94838e-21)
(1.247 0.319614 -8.59692e-22)
(1.23264 0.300744 1.74197e-21)
(1.22033 0.282296 8.81142e-21)
(1.21008 0.264477 -6.47943e-23)
(1.20147 0.247562 -4.88806e-23)
(1.19429 0.230681 -1.16686e-20)
(1.18776 0.21595 -6.39302e-21)
(0.210951 0.0263416 -3.30881e-22)
(0.667813 0.15148 8.60809e-21)
(1.01587 0.283455 -1.17001e-20)
(1.19594 0.349339 -2.34031e-21)
(1.2602 0.369004 1.62283e-22)
(1.26777 0.362467 1.57943e-21)
(1.2557 0.345389 3.84676e-21)
(1.23989 0.325562 1.29012e-20)
(1.22543 0.305595 -1.11485e-20)
(1.21322 0.286285 -1.80557e-20)
(1.20313 0.267771 7.89084e-21)
(1.1947 0.250254 1.27827e-21)
(1.18771 0.232869 2.6126e-20)
(1.18127 0.217873 -1.37261e-20)
(0.230886 0.034914 -3.49139e-20)
(0.701348 0.173815 1.5239e-20)
(1.04059 0.306494 -2.34564e-20)
(1.20647 0.367899 -1.59987e-21)
(1.26039 0.382391 5.11342e-22)
(1.26267 0.372174 1.22001e-21)
(1.2486 0.352774 -5.76185e-22)
(1.23229 0.331444 -1.3951e-20)
(1.21786 0.310382 1.8745e-20)
(1.20582 0.290204 -2.78802e-20)
(1.19593 0.270988 -3.33649e-20)
(1.18772 0.252866 -3.67796e-20)
(1.18097 0.234983 1.63571e-20)
(1.17465 0.219711 2.01841e-20)
(0.250794 0.0445728 1.99027e-20)
(0.732662 0.197089 1.73121e-20)
(1.06199 0.329606 2.9234e-20)
(1.21412 0.386173 -2.89455e-21)
(1.25863 0.395474 -3.33997e-22)
(1.25641 0.381685 -1.32712e-20)
(1.24081 0.360042 2.51768e-20)
(1.22423 0.33724 4.04449e-20)
(1.20992 0.315085 -4.01851e-20)
(1.19812 0.294034 3.16801e-20)
(1.18849 0.274113 6.00104e-20)
(1.18054 0.255382 6.12473e-20)
(1.17405 0.237007 -4.78334e-20)
(1.1679 0.221454 3.68997e-21)
(0.270488 0.0552831 2.55064e-20)
(0.761553 0.221139 -4.39538e-20)
(1.08013 0.352687 -2.70131e-22)
(1.21904 0.40411 1.5984e-20)
(1.25509 0.408233 -4.5737e-21)
(1.24908 0.390984 1.29455e-20)
(1.23236 0.367176 -1.57991e-20)
(1.21569 0.342926 -1.19931e-20)
(1.20162 0.319679 2.60296e-20)
(1.19012 0.297755 3.10642e-20)
(1.1808 0.277129 -4.004e-20)
(1.17315 0.257789 -5.646e-20)
(1.16697 0.238925 2.75246e-20)
(1.16102 0.223084 -5.01476e-20)
(0.289782 0.0669948 2.14605e-20)
(0.787855 0.245802 -7.72133e-21)
(1.09507 0.375633 -5.09638e-20)
(1.22139 0.421657 -9.96291e-21)
(1.24988 0.420647 1.15561e-20)
(1.24074 0.400056 -1.14585e-20)
(1.22327 0.37415 -1.17032e-20)
(1.20671 0.348477 -2.21547e-20)
(1.19296 0.324143 -3.36647e-21)
(1.18183 0.301347 -4.38715e-20)
(1.17287 0.280018 2.33996e-20)
(1.16556 0.260072 1.18946e-22)
(1.15972 0.240726 -4.06697e-21)
(1.15396 0.224584 4.04413e-20)
(0.308494 0.079644 -1.40587e-21)
(0.811443 0.270913 1.01802e-19)
(1.10687 0.398345 2.20568e-20)
(1.22131 0.438764 -6.75826e-21)
(1.24312 0.432691 -2.6188e-21)
(1.23148 0.408876 -2.67957e-20)
(1.21358 0.380939 -1.64058e-20)
(1.19727 0.353867 8.21906e-20)
(1.18395 0.328452 7.67701e-20)
(1.17325 0.30479 -9.97755e-20)
(1.16469 0.282764 9.06051e-21)
(1.15777 0.262216 4.92491e-20)
(1.15233 0.242413 6.98937e-20)
(1.14668 0.225962 2.7997e-20)
(0.326449 0.093155 -5.87518e-20)
(0.832226 0.296307 -9.62412e-20)
(1.11564 0.420723 5.15556e-21)
(1.21893 0.455378 9.08135e-21)
(1.23492 0.444337 -1.04385e-20)
(1.22132 0.417419 8.05248e-21)
(1.2033 0.387515 2.09893e-20)
(1.18739 0.359066 -1.07009e-19)
(1.17458 0.332582 1.17157e-20)
(1.16437 0.308061 2.56706e-20)
(1.15626 0.285347 8.27001e-20)
(1.14978 0.264199 -5.91501e-20)
(1.1448 0.243992 -1.29177e-19)
(1.13927 0.22728 -1.29805e-19)
(0.34348 0.107442 2.56476e-20)
(0.850142 0.321824 -4.89237e-20)
(1.12146 0.442669 3.92271e-20)
(1.2144 0.471449 4.12799e-21)
(1.22537 0.455554 -3.01763e-21)
(1.21034 0.425654 4.45297e-20)
(1.19244 0.393844 8.32815e-20)
(1.17708 0.364047 1.25094e-19)
(1.16485 0.336505 -1.41791e-19)
(1.1552 0.311142 9.85458e-20)
(1.14759 0.287748 -5.61387e-20)
(1.14162 0.266004 6.35256e-20)
(1.13708 0.245425 -8.97786e-20)
(1.13179 0.228412 5.55432e-20)
(0.359436 0.122408 7.56568e-20)
(0.865161 0.347306 2.34247e-20)
(1.12444 0.464087 -6.41273e-21)
(1.20782 0.486925 2.0112e-21)
(1.21455 0.466307 1.61348e-20)
(1.19856 0.433549 2.40876e-20)
(1.18103 0.399896 -1.89618e-20)
(1.16633 0.368778 -1.00816e-19)
(1.15478 0.340198 8.43369e-20)
(1.14575 0.314009 1.90632e-20)
(1.13871 0.289948 -4.6259e-20)
(1.13328 0.267629 -3.53949e-20)
(1.12918 0.246694 1.91817e-19)
(1.12423 0.22939 8.99341e-20)
(0.374174 0.13795 -8.59223e-20)
(0.877274 0.372599 6.61624e-20)
(1.12469 0.484882 -2.79457e-20)
(1.19933 0.501753 -1.65931e-21)
(1.20255 0.47656 -6.2184e-20)
(1.18602 0.441068 -8.11941e-20)
(1.16907 0.405634 -1.46464e-19)
(1.15516 0.373228 8.2889e-20)
(1.14437 0.343633 4.58638e-21)
(1.13603 0.316639 -1.68923e-19)
(1.1296 0.29193 1.10299e-19)
(1.12476 0.269058 -1.37287e-20)
(1.12113 0.247783 7.60461e-20)
(1.11658 0.230187 -7.95028e-20)
(0.387572 0.153958 2.85943e-20)
(0.886495 0.397552 -3.38328e-20)
(1.12233 0.504963 1.76511e-20)
(1.18904 0.51588 1.4881e-20)
(1.18944 0.486277 6.29973e-20)
(1.17276 0.448175 7.12491e-20)
(1.15659 0.411022 1.13751e-19)
(1.14359 0.377367 -6.4818e-20)
(1.13364 0.346785 -9.38726e-20)
(1.12604 0.319012 2.41839e-19)
(1.12028 0.293675 -1.12812e-19)
(1.11606 0.270278 1.83055e-19)
(1.11294 0.248681 -1.56722e-19)
(1.10884 0.230799 1.22851e-19)
(0.399521 0.170314 -5.66931e-21)
(0.892858 0.42202 2.12276e-20)
(1.11747 0.524238 -4.02288e-20)
(1.17706 0.529254 -1.02031e-20)
(1.17529 0.495416 6.41384e-20)
(1.1588 0.454833 3.06354e-20)
(1.14361 0.416026 6.87714e-20)
(1.13162 0.381162 4.56028e-20)
(1.12259 0.349629 1.22118e-19)
(1.1158 0.321104 -2.69818e-19)
(1.11075 0.295165 -1.17961e-19)
(1.1072 0.271272 -1.35149e-19)
(1.10463 0.249375 2.01497e-19)
(1.101 0.231213 -8.59222e-20)
(0.409929 0.186898 2.24568e-20)
(0.896413 0.445861 2.88095e-20)
(1.11023 0.542621 1.82267e-20)
(1.16349 0.541822 1.31098e-20)
(1.16013 0.50393 -4.59382e-20)
(1.14421 0.461004 -7.54513e-20)
(1.13016 0.420611 -1.45066e-19)
(1.11927 0.384584 -1.31605e-19)
(1.11123 0.352139 1.65108e-19)
(1.1053 0.322896 2.12816e-19)
(1.10102 0.296382 -8.30043e-20)
(1.09817 0.272025 1.43565e-19)
(1.09619 0.24985 -1.52907e-19)
(1.09309 0.231418 -1.22116e-19)
(0.418725 0.203586 -4.6672e-20)
(0.897226 0.46894 -5.13258e-20)
(1.10073 0.560026 -4.55884e-21)
(1.14843 0.553536 3.01904e-20)
(1.14402 0.511766 1.68985e-20)
(1.12902 0.466651 -3.05052e-20)
(1.11624 0.424744 -4.36817e-20)
(1.10655 0.387602 1.99457e-19)
(1.09958 0.35429 -6.89659e-20)
(1.09458 0.324365 1.56123e-19)
(1.09112 0.29731 1.76606e-19)
(1.089 0.272523 -2.04603e-19)
(1.08763 0.250094 -3.98399e-20)
(1.08511 0.231406 -9.90983e-20)
(0.425851 0.220251 -7.52898e-21)
(0.895378 0.491126 -2.17384e-20)
(1.08909 0.576372 2.14358e-20)
(1.13199 0.56435 1.53248e-20)
(1.12708 0.518897 -4.7292e-20)
(1.11325 0.47171 5.82763e-21)
(1.10187 0.428396 6.97027e-20)
(1.09348 0.390188 -6.08676e-20)
(1.08765 0.356055 -5.01e-20)
(1.08363 0.325492 -3.1688e-19)
(1.08104 0.297931 6.60418e-20)
(1.0797 0.272753 -1.0908e-19)
(1.07897 0.250094 1.20225e-19)
(1.07707 0.231166 1.92592e-19)
(0.43127 0.236766 3.59202e-20)
(0.890959 0.512294 2.50754e-20)
(1.07544 0.59158 -3.09682e-20)
(1.11426 0.574204 -1.09349e-19)
(1.10936 0.525292 1.40959e-20)
(1.09689 0.476144 -3.12511e-20)
(1.08708 0.43152 1.31378e-19)
(1.08008 0.392312 4.12574e-20)
(1.07546 0.357412 8.98581e-20)
(1.07248 0.326257 1.47325e-19)
(1.0708 0.298229 -5.33979e-20)
(1.07027 0.272699 5.48508e-20)
(1.07022 0.249836 -1.50586e-19)
(1.06899 0.230688 -2.08628e-19)
(0.434962 0.253003 -4.6704e-20)
(0.884069 0.532325 2.32438e-20)
(1.0599 0.605575 2.79066e-20)
(1.09534 0.583047 1.29663e-19)
(1.0909 0.530898 2.47968e-20)
(1.08001 0.479929 -4.20921e-20)
(1.0719 0.434082 -1.70674e-19)
(1.06638 0.393947 -2.84674e-19)
(1.06303 0.358338 -4.19452e-19)
(1.06115 0.32664 -2.97467e-20)
(1.06043 0.29819 -5.99111e-22)
(1.06073 0.272351 2.18554e-19)
(1.06137 0.249309 1.89852e-19)
(1.06086 0.229963 1.76814e-19)
(0.436922 0.268838 1.03008e-20)
(0.874823 0.551108 1.43043e-20)
(1.0426 0.618281 6.53559e-20)
(1.07532 0.590832 -5.98962e-20)
(1.07175 0.535673 8.3533e-20)
(1.06266 0.483025 5.51464e-21)
(1.05635 0.436052 2.15094e-19)
(1.05239 0.395066 2.7348e-19)
(1.05038 0.35881 2.88567e-19)
(1.04965 0.326622 -3.13676e-19)
(1.04993 0.297798 -4.96943e-20)
(1.05109 0.271695 -1.96697e-19)
(1.05245 0.248501 -1.25814e-20)
(1.05271 0.228979 -1.50468e-19)
(0.437165 0.284149 1.97685e-21)
(0.863367 0.568553 -4.32626e-20)
(1.02363 0.629613 1.23452e-20)
(1.05431 0.597509 -9.05115e-20)
(1.05197 0.539577 -8.48644e-21)
(1.04486 0.485397 8.69694e-20)
(1.04046 0.437397 -3.24184e-19)
(1.03814 0.395642 -3.23263e-19)
(1.03754 0.358807 -1.9576e-20)
(1.03801 0.326188 5.62355e-19)
(1.03932 0.297039 6.94027e-20)
(1.04137 0.27072 5.20082e-20)
(1.04347 0.2474 2.35953e-20)
(1.04456 0.227729 -8.52404e-21)
(0.435732 0.29881 -1.63353e-21)
(0.849882 0.584611 8.78583e-20)
(1.00304 0.639474 -1.45093e-19)
(1.03237 0.603013 7.96858e-20)
(1.03161 0.54257 -1.03247e-19)
(1.02667 0.487009 -6.67084e-21)
(1.02428 0.438089 -3.6743e-23)
(1.02366 0.395651 5.42918e-20)
(1.02452 0.35831 -1.17029e-21)
(1.02624 0.325319 -1.08112e-19)
(1.02864 0.2959 -1.04072e-19)
(1.03159 0.269417 -2.22268e-19)
(1.03444 0.245995 -4.96018e-19)
(1.0364 0.226202 3.05759e-19)
(0.432682 0.312687 4.90116e-20)
(0.834502 0.599229 -1.01371e-19)
(0.980954 0.647824 1.50933e-19)
(1.00961 0.607273 3.01697e-19)
(1.01075 0.544613 -1.59266e-19)
(1.00812 0.487828 -3.78302e-19)
(1.00783 0.4381 2.1692e-19)
(1.00898 0.395071 4.76681e-20)
(1.01136 0.357299 -1.55765e-19)
(1.01437 0.324001 -3.06127e-19)
(1.01788 0.294368 -2.17535e-20)
(1.02176 0.267773 1.23585e-19)
(1.02538 0.244273 -1.65376e-19)
(1.02827 0.224386 2.18992e-19)
(0.428077 0.32564 5.13568e-21)
(0.817169 0.612203 -3.75061e-20)
(0.957677 0.65475 -3.24666e-19)
(0.986154 0.610249 -3.3214e-19)
(0.989449 0.545669 3.69259e-19)
(0.989261 0.487825 5.62362e-19)
(0.99115 0.437406 1.76217e-19)
(0.994139 0.393882 2.24121e-19)
(0.998078 0.355759 -6.43033e-20)
(1.00242 0.32222 1.32191e-19)
(1.00709 0.292433 8.86631e-20)
(1.0119 0.265781 1.68074e-20)
(1.01631 0.242219 1.96361e-19)
(1.02017 0.222259 -4.4664e-19)
(0.421956 0.337601 -5.28773e-20)
(0.797924 0.623339 -3.0365e-20)
(0.933393 0.660197 3.98629e-19)
(0.962073 0.611957 3.35886e-20)
(0.967765 0.545706 -2.57474e-19)
(0.970139 0.486973 -9.84034e-20)
(0.97428 0.435983 2.82571e-19)
(0.979157 0.392064 -9.94946e-20)
(0.984703 0.353673 2.11084e-19)
(0.990422 0.319962 2.06658e-19)
(0.996266 0.290084 -5.11148e-20)
(1.00203 0.263432 7.2308e-20)
(1.00722 0.239817 3.8483e-19)
(1.01211 0.219792 -5.09812e-20)
(0.414386 0.348507 -1.72573e-19)
(0.777039 0.632628 1.40777e-19)
(0.908148 0.664047 -2.19379e-19)
(0.937455 0.612374 5.02393e-20)
(0.945764 0.544696 -9.70358e-20)
(0.950803 0.485245 -4.38654e-19)
(0.957259 0.433811 -2.47024e-19)
(0.964073 0.3896 1.01568e-19)
(0.971264 0.351027 1.88253e-19)
(0.978392 0.317217 -5.62456e-20)
(0.985446 0.287313 5.7467e-21)
(0.992162 0.260719 1.01127e-20)
(0.998157 0.23706 2.61506e-20)
(1.00416 0.216986 7.44912e-19)
(0.40542 0.358268 2.73374e-20)
(0.754728 0.64005 -1.81951e-19)
(0.882054 0.666236 -2.61685e-19)
(0.912389 0.611474 1.88433e-19)
(0.923511 0.542615 3.89204e-19)
(0.931303 0.482619 3.97415e-20)
(0.940129 0.430872 -1.21317e-19)
(0.94892 0.386476 -1.63793e-20)
(0.957792 0.34781 -1.49782e-19)
(0.966359 0.313973 1.08686e-19)
(0.974642 0.284111 1.01944e-19)
(0.982304 0.257628 -1.46692e-19)
(0.989177 0.233943 -1.82609e-19)
(0.996539 0.213899 1.02241e-19)
(0.395121 0.366766 -1.28804e-19)
(0.731169 0.64556 1.82522e-19)
(0.855228 0.66673 5.68001e-19)
(0.886965 0.609233 -9.56921e-20)
(0.901069 0.53944 -2.25217e-19)
(0.911689 0.479076 4.89844e-19)
(0.922932 0.42715 -1.98202e-19)
(0.933736 0.382679 -2.11526e-20)
(0.944318 0.34401 -4.92856e-19)
(0.954349 0.310224 -1.90272e-19)
(0.963863 0.280467 -1.18006e-19)
(0.972473 0.254137 -3.06153e-19)
(0.980405 0.230437 -1.98221e-19)
(0.989493 0.21057 -5.72447e-19)
(0.383609 0.373931 -2.89831e-20)
(0.706513 0.649102 2.9856e-19)
(0.827794 0.6655 -5.85167e-19)
(0.861273 0.60563 2.66032e-19)
(0.878506 0.535154 7.89755e-20)
(0.892015 0.474599 -7.46904e-19)
(0.905713 0.422632 7.42838e-20)
(0.918558 0.378198 -3.31051e-19)
(0.930872 0.339621 3.19002e-19)
(0.942383 0.305964 -4.67131e-21)
(0.953124 0.276377 1.9472e-19)
(0.962713 0.250233 6.70703e-19)
(0.971951 0.226473 -4.2703e-19)
(0.982786 0.206792 4.55945e-20)
(0.371006 0.379705 3.69755e-19)
(0.680909 0.650635 -2.86904e-19)
(0.799878 0.662529 6.64011e-19)
(0.835403 0.600646 -7.36653e-19)
(0.855888 0.529741 -9.22245e-20)
(0.872335 0.469176 -3.68839e-20)
(0.888516 0.417308 5.62472e-19)
(0.903424 0.373027 4.66251e-19)
(0.917488 0.334635 -3.63189e-19)
(0.930486 0.30119 -9.25648e-21)
(0.942449 0.27184 -2.24661e-19)
(0.953087 0.245938 -5.87997e-19)
(0.963808 0.222111 2.9144e-19)
(0.975574 0.201262 -5.25574e-20)
(0.357429 0.384034 -3.12267e-19)
(0.654511 0.650125 -2.69322e-19)
(0.771608 0.6578 -7.8679e-19)
(0.809448 0.594269 1.85287e-19)
(0.833285 0.523191 -1.7898e-19)
(0.852704 0.462796 1.85426e-19)
(0.871388 0.411171 -4.79205e-19)
(0.888372 0.367158 3.22462e-20)
(0.904197 0.329051 1.35528e-20)
(0.918683 0.295898 -4.59075e-19)
(0.931879 0.266852 2.91205e-19)
(0.943644 0.241264 3.45736e-19)
(0.955658 0.217776 1.58882e-19)
(0.967429 0.197084 6.26175e-19)
(0.342996 0.386871 3.7374e-19)
(0.627475 0.647553 7.55193e-19)
(0.74311 0.651307 3.61848e-19)
(0.783498 0.586492 1.59254e-19)
(0.810764 0.515497 4.39304e-19)
(0.833178 0.455454 6.55428e-19)
(0.854374 0.404216 1.36596e-19)
(0.873442 0.36059 9.18795e-20)
(0.891032 0.322864 7.51868e-19)
(0.907003 0.290087 -1.77275e-19)
(0.921446 0.261407 2.19922e-21)
(0.93438 0.236155 -3.46945e-19)
(0.947528 0.212947 2.70369e-19)
(0.959481 0.192303 6.52463e-21)
(0.327828 0.38818 4.94556e-19)
(0.599955 0.642904 -2.40998e-19)
(0.71451 0.643049 4.18333e-19)
(0.757644 0.577312 -8.29793e-20)
(0.788396 0.506654 3.57903e-20)
(0.813812 0.447146 -1.42509e-19)
(0.837523 0.396441 3.35796e-19)
(0.858673 0.353321 -8.17012e-21)
(0.878024 0.316076 -3.02591e-19)
(0.895476 0.283757 5.73723e-19)
(0.911174 0.255511 -2.65194e-19)
(0.925273 0.230659 1.92106e-19)
(0.939418 0.207839 -3.13898e-20)
(0.951694 0.187527 -7.75873e-19)
(0.312045 0.387933 -2.77751e-19)
(0.572106 0.636176 -5.72227e-19)
(0.685932 0.633031 -3.54315e-19)
(0.731978 0.566732 5.51418e-19)
(0.766248 0.496665 -5.48327e-20)
(0.794664 0.437875 1.83383e-19)
(0.820881 0.387848 -3.8978e-19)
(0.844105 0.345354 -6.04878e-19)
(0.865208 0.308689 3.13817e-19)
(0.88413 0.276911 -1.46967e-19)
(0.901086 0.249165 3.85452e-19)
(0.916331 0.224764 7.01562e-21)
(0.931396 0.202379 -4.72303e-19)
(0.944117 0.182492 2.77063e-20)
(0.295772 0.386113 -5.32209e-19)
(0.54408 0.627374 1.91574e-19)
(0.657499 0.621265 -3.99307e-19)
(0.706588 0.55476 -4.39923e-19)
(0.744392 0.485534 -1.68961e-19)
(0.775791 0.427644 1.44093e-19)
(0.804495 0.378441 -4.18903e-19)
(0.829777 0.336692 4.02737e-19)
(0.852617 0.300708 -5.51926e-19)
(0.872996 0.269552 3.70166e-19)
(0.891203 0.242376 3.74437e-19)
(0.907569 0.218484 -1.22551e-19)
(0.923508 0.196606 4.84713e-19)
(0.936766 0.17722 5.49354e-19)
(0.279131 0.382711 1.347e-19)
(0.51603 0.616511 4.56841e-20)
(0.629329 0.607768 7.00237e-19)
(0.681564 0.541408 5.47411e-19)
(0.722895 0.473271 2.63274e-19)
(0.757249 0.416461 -1.58371e-19)
(0.788413 0.368229 -3.03746e-19)
(0.81573 0.327344 -1.86973e-19)
(0.840284 0.292137 2.19216e-19)
(0.862103 0.261687 -7.03672e-19)
(0.881547 0.235147 -3.46869e-19)
(0.899006 0.211824 -2.38462e-19)
(0.915789 0.190515 1.40245e-19)
(0.929646 0.171681 -8.47588e-19)
(0.262245 0.377726 5.73146e-20)
(0.488104 0.603611 -1.3533e-19)
(0.601542 0.592565 5.27061e-21)
(0.656993 0.526696 -7.45011e-19)
(0.701826 0.459891 -2.25285e-19)
(0.739094 0.404339 -4.50328e-19)
(0.772683 0.357221 9.79262e-20)
(0.802002 0.317317 -2.39329e-19)
(0.828242 0.282987 -1.49457e-19)
(0.851478 0.253323 2.71433e-19)
(0.872141 0.227487 -3.27446e-19)
(0.890663 0.204794 -1.06678e-19)
(0.908268 0.184112 -5.79721e-20)
(0.922765 0.165869 9.04479e-19)
(0.245236 0.371166 1.38853e-20)
(0.460447 0.588706 -1.38367e-19)
(0.574252 0.575687 1.92504e-19)
(0.63296 0.510647 2.36451e-19)
(0.681253 0.445411 4.44918e-20)
(0.721383 0.391293 7.76726e-19)
(0.757349 0.345431 -2.40495e-19)
(0.788633 0.306625 6.1632e-19)
(0.816525 0.273268 1.57956e-19)
(0.84115 0.244469 -4.73281e-19)
(0.863007 0.219404 3.46676e-19)
(0.882563 0.1974 6.56687e-19)
(0.900969 0.1774 -3.4226e-19)
(0.91613 0.15978 -6.60019e-19)
(0.228222 0.363048 1.61324e-19)
(0.433203 0.571836 -3.15821e-19)
(0.54757 0.557171 -1.17106e-18)
(0.60955 0.493288 -2.97438e-19)
(0.661243 0.429854 3.71621e-19)
(0.70417 0.377342 -4.82682e-21)
(0.742459 0.332876 2.67518e-19)
(0.77566 0.295282 -4.03182e-19)
(0.805165 0.262991 -6.07633e-19)
(0.831145 0.235137 4.55573e-19)
(0.854167 0.210908 4.70145e-20)
(0.874726 0.189652 -2.81514e-20)
(0.893911 0.170383 3.30073e-19)
(0.909749 0.153418 3.58133e-19)
(0.211323 0.353397 -4.66094e-19)
(0.406509 0.553047 2.52491e-19)
(0.521606 0.53706 2.8902e-19)
(0.586845 0.474654 7.29973e-20)
(0.64186 0.413247 7.80785e-20)
(0.687508 0.362508 -5.17651e-19)
(0.728057 0.319576 -1.06106e-19)
(0.763121 0.283305 -1.3189e-19)
(0.794194 0.252173 8.00535e-19)
(0.82149 0.22534 1.23609e-19)
(0.845644 0.202012 2.5086e-20)
(0.867173 0.181559 -5.71207e-19)
(0.887113 0.163069 7.94303e-20)
(0.903631 0.146786 -2.02268e-19)
(0.194653 0.342245 2.44431e-19)
(0.380501 0.532396 1.0885e-18)
(0.496464 0.515403 5.63256e-19)
(0.564924 0.454783 6.67812e-19)
(0.623167 0.39562 -6.9529e-19)
(0.671452 0.346819 1.43504e-19)
(0.714187 0.305552 2.69263e-20)
(0.751054 0.270712 8.18534e-19)
(0.783641 0.240829 -8.7257e-19)
(0.812211 0.215091 -4.43987e-19)
(0.837459 0.192727 -2.81011e-19)
(0.859923 0.173133 -2.22813e-19)
(0.880592 0.155465 -4.027e-19)
(0.897787 0.139895 2.75152e-19)
(0.178325 0.329633 -2.68709e-20)
(0.355306 0.509945 -4.18261e-19)
(0.472245 0.492255 1.82074e-19)
(0.543863 0.433717 -3.1591e-22)
(0.605227 0.377009 2.24205e-19)
(0.656051 0.330302 1.47521e-21)
(0.700891 0.290829 2.00128e-19)
(0.739493 0.257525 1.22601e-19)
(0.773538 0.228979 8.16807e-19)
(0.803333 0.204407 7.74482e-19)
(0.829634 0.183067 3.21492e-19)
(0.852994 0.164385 5.61975e-19)
(0.874363 0.147579 2.13675e-19)
(0.892226 0.132751 4.54557e-20)
(0.162448 0.31561 2.77334e-19)
(0.331049 0.485765 -3.87264e-20)
(0.449044 0.467676 -1.57998e-19)
(0.523737 0.411504 -1.78692e-19)
(0.588098 0.357452 5.99421e-19)
(0.641355 0.312991 9.10087e-20)
(0.68821 0.275436 5.93598e-20)
(0.728473 0.243769 -6.46553e-19)
(0.763912 0.216641 3.18882e-19)
(0.79488 0.193306 -2.69607e-19)
(0.822189 0.173049 8.97963e-20)
(0.846405 0.155328 -6.13385e-19)
(0.868443 0.139422 1.72357e-19)
(0.886958 0.125368 8.40986e-20)
(0.147125 0.300232 6.1764e-20)
(0.307847 0.459933 -1.5652e-19)
(0.426955 0.441732 -4.66902e-19)
(0.504615 0.388197 6.82958e-19)
(0.571837 0.336991 -9.86572e-19)
(0.62741 0.294921 -3.0392e-19)
(0.676184 0.259403 -4.72823e-19)
(0.718027 0.229469 5.16727e-19)
(0.754793 0.20384 -5.39713e-19)
(0.786876 0.181807 -5.91248e-19)
(0.815143 0.162688 3.27711e-19)
(0.840172 0.145976 1.18793e-19)
(0.862844 0.131007 -1.55867e-19)
(0.881994 0.117755 -1.43881e-19)
(0.132456 0.283559 -6.375e-19)
(0.285813 0.432531 -3.32195e-19)
(0.406063 0.414494 1.40646e-19)
(0.486565 0.36385 -3.35956e-19)
(0.556499 0.315672 2.96428e-19)
(0.614263 0.276131 3.85673e-19)
(0.664851 0.242762 2.08621e-19)
(0.708187 0.214653 -1.22717e-19)
(0.746206 0.190599 -5.034e-19)
(0.779342 0.16993 2.23281e-19)
(0.808515 0.152002 2.08849e-19)
(0.83431 0.136343 2.74635e-19)
(0.857581 0.122344 6.07489e-20)
(0.877341 0.109926 -2.71406e-19)
(0.118534 0.265663 9.0685e-20)
(0.265052 0.403651 3.10304e-19)
(0.386452 0.386037 4.26948e-19)
(0.469649 0.338525 -7.53097e-19)
(0.542135 0.293545 -6.31374e-19)
(0.601956 0.256663 -3.35713e-19)
(0.654247 0.225549 -5.73435e-19)
(0.698983 0.199352 2.67322e-19)
(0.738176 0.176943 6.84633e-19)
(0.7723 0.157698 3.48308e-19)
(0.802322 0.141011 -3.61538e-19)
(0.828834 0.126447 -3.462e-19)
(0.852666 0.113449 2.87626e-19)
(0.873009 0.101895 1.98401e-19)
(0.105448 0.246616 -3.84493e-19)
(0.245662 0.373387 3.2202e-19)
(0.368197 0.356441 -2.54705e-19)
(0.453928 0.312285 4.54325e-19)
(0.528792 0.270662 2.58099e-21)
(0.59053 0.23656 3.25542e-19)
(0.644405 0.207801 2.84448e-19)
(0.690444 0.183597 -3.17267e-19)
(0.730728 0.162901 -3.57077e-19)