/*--------------------------------*- C++ -*----------------------------------*\
  =========                 |
  \\      /  F ield         | OpenFOAM: The Open Source CFD Toolbox
   \\    /   O peration     | Website:  https://openfoam.org
    \\  /    A nd           | Version:  7
     \\/     M anipulation  |
\*---------------------------------------------------------------------------*/
FoamFile
{
    version     2.0;
    format      ascii;
    class       volScalarField;
    location    "20";
    object      p;
}
// * * * * * * * * * * * * * * * * * * * * * * * * * * * * * * * * * * * * * //

dimensions      [0 2 -2 0 0 0 0];

internalField   nonuniform List<scalar> 
6386
(
-0.362411
-0.371927
-0.381801
-0.391986
-0.379689
-0.40243
-0.388428
-0.413077
-0.397349
-0.385124
-0.423864
-0.406402
-0.39307
-0.379548
-0.434725
-0.415536
-0.401108
-0.386619
-0.44559
-0.424695
-0.409191
-0.393749
-0.378426
-0.456387
-0.433817
-0.417265
-0.400891
-0.384721
-0.369145
-0.467035
-0.442832
-0.42527
-0.407991
-0.390977
-0.374602
-0.35898
-0.47745
-0.451664
-0.433135
-0.414982
-0.397129
-0.37992
-0.363385
-0.34726
-0.487534
-0.460229
-0.440783
-0.421788
-0.403101
-0.385021
-0.367487
-0.35014
-0.332519
-0.497181
-0.468429
-0.448121
-0.428321
-0.408803
-0.389816
-0.371201
-0.352527
-0.333304
-0.32219
-0.506274
-0.476159
-0.45505
-0.434482
-0.414137
-0.394203
-0.374434
-0.354347
-0.333469
-0.319183
-0.514683
-0.4833
-0.461457
-0.440161
-0.41899
-0.398072
-0.377082
-0.355512
-0.332954
-0.315624
-0.522265
-0.489727
-0.467219
-0.445235
-0.42324
-0.401303
-0.379033
-0.355931
-0.331683
-0.311474
-0.528867
-0.4953
-0.472205
-0.449574
-0.426757
-0.403766
-0.380169
-0.355501
-0.329576
-0.306674
-0.534329
-0.499874
-0.476273
-0.453038
-0.429401
-0.405329
-0.380367
-0.354118
-0.326546
-0.301153
-0.538479
-0.503296
-0.479274
-0.45548
-0.431028
-0.405851
-0.379501
-0.351675
-0.322506
-0.294832
-0.541144
-0.505407
-0.481056
-0.456748
-0.43149
-0.405193
-0.377443
-0.348065
-0.317367
-0.28763
-0.542147
-0.506046
-0.481459
-0.456686
-0.430634
-0.403214
-0.374072
-0.343186
-0.311047
-0.279469
-0.541312
-0.50505
-0.480326
-0.45514
-0.428313
-0.399776
-0.369267
-0.33694
-0.303468
-0.270274
-0.538464
-0.502258
-0.477499
-0.451954
-0.424379
-0.394747
-0.362917
-0.329238
-0.294562
-0.25998
-0.533439
-0.497513
-0.472825
-0.44698
-0.418694
-0.388005
-0.354921
-0.320003
-0.284272
-0.248533
-0.526078
-0.490668
-0.466156
-0.440077
-0.411127
-0.379438
-0.34519
-0.309169
-0.27255
-0.235887
-0.516238
-0.481583
-0.457358
-0.431115
-0.401561
-0.368948
-0.333651
-0.296685
-0.259363
-0.222012
-0.503791
-0.470133
-0.446305
-0.419976
-0.389893
-0.356453
-0.320243
-0.282513
-0.244691
-0.206887
-0.488627
-0.456209
-0.432891
-0.40656
-0.37604
-0.34189
-0.304928
-0.266633
-0.228527
-0.190504
-0.470659
-0.439721
-0.417025
-0.390786
-0.359934
-0.325214
-0.287681
-0.249039
-0.210878
-0.17287
-0.449824
-0.420601
-0.398641
-0.372595
-0.341534
-0.306402
-0.268501
-0.229742
-0.191767
-0.154008
-0.426084
-0.398803
-0.377694
-0.351952
-0.320819
-0.285455
-0.247402
-0.208769
-0.171225
-0.133943
-0.399429
-0.374308
-0.354164
-0.328845
-0.297795
-0.262394
-0.224422
-0.186163
-0.149292
-0.112636
-0.369882
-0.347125
-0.328058
-0.30329
-0.272491
-0.237265
-0.199618
-0.161997
-0.126047
-0.0900132
-0.337491
-0.317289
-0.299413
-0.275331
-0.244963
-0.210135
-0.173068
-0.136353
-0.101615
-0.0664579
-0.302338
-0.284867
-0.268292
-0.245039
-0.215293
-0.181096
-0.144866
-0.109299
-0.0758386
-0.0422716
-0.264536
-0.249953
-0.234788
-0.212512
-0.183587
-0.15026
-0.115127
-0.0809642
-0.0490104
-0.0171655
-0.224226
-0.212671
-0.199023
-0.177875
-0.149976
-0.117761
-0.0839816
-0.0514617
-0.0212534
0.0087515
-0.181581
-0.173172
-0.161146
-0.14128
-0.11461
-0.0837538
-0.0515795
-0.020929
0.00732567
0.0353239
-0.136798
-0.131636
-0.121332
-0.102891
-0.0776714
-0.0484104
-0.0180841
0.0104817
0.0365955
0.0623899
-0.090085
-0.0882798
-0.0797694
-0.0629237
-0.039351
-0.0119177
0.0163257
0.0426082
0.0664158
0.0897613
-0.0416922
-0.0433327
-0.0366951
-0.0215862
0.000141374
0.0255228
0.0514598
0.0752883
0.0966546
0.117142
0.00805858
0.00299046
0.00765336
0.0208862
0.0405799
0.063698
0.0871211
0.108369
0.127161
0.143996
0.058915
0.0503953
0.0530151
0.0642423
0.0817276
0.102387
0.123112
0.141693
0.157631
0.169587
0.110574
0.098594
0.0991149
0.10822
0.123339
0.141367
0.15925
0.175064
0.187482
0.193161
0.162714
0.147288
0.145666
0.152545
0.165163
0.180422
0.195366
0.208275
0.216136
0.215874
0.215005
0.196169
0.192369
0.196939
0.206942
0.219327
0.231259
0.241234
0.246129
0.244248
0.267108
0.244916
0.238922
0.241113
0.248412
0.25784
0.266688
0.273613
0.27577
0.272446
0.318683
0.293209
0.285015
0.284781
0.289309
0.295718
0.301432
0.305226
0.304553
0.299475
0.369387
0.340722
0.33034
0.327654
0.329371
0.332727
0.335285
0.335927
0.332406
0.325327
0.418882
0.387134
0.374591
0.36945
0.368345
0.368643
0.36805
0.365558
0.359219
0.34999
0.466833
0.432127
0.417467
0.409891
0.405982
0.403248
0.399542
0.393965
0.384862
0.373416
0.512916
0.475391
0.458675
0.448709
0.442042
0.436335
0.429587
0.421004
0.409218
0.395538
0.556815
0.516626
0.497932
0.485644
0.476297
0.467707
0.458017
0.446541
0.432177
0.416293
0.598229
0.555544
0.534966
0.520451
0.50853
0.497177
0.484676
0.470448
0.453637
0.435614
0.636873
0.591874
0.569523
0.552896
0.538536
0.524569
0.509419
0.492604
0.473501
0.453437
0.67248
0.625359
0.601362
0.582763
0.566123
0.549722
0.532107
0.512897
0.491674
0.469697
0.704803
0.655763
0.630261
0.609851
0.591118
0.572484
0.552617
0.531222
0.508071
0.484332
0.733615
0.682872
0.65602
0.633977
0.61336
0.592719
0.570832
0.547483
0.522612
0.497284
0.758715
0.706491
0.678456
0.65498
0.632708
0.610307
0.586652
0.561597
0.535225
0.508498
0.779927
0.726454
0.697414
0.672718
0.649037
0.625142
0.599986
0.573486
0.545845
0.517926
0.7971
0.742615
0.712759
0.68707
0.662243
0.637133
0.61076
0.583089
0.55442
0.525524
0.810113
0.75486
0.724383
0.697938
0.67224
0.646208
0.618911
0.590354
0.560902
0.531254
0.818871
0.7631
0.732203
0.705248
0.678963
0.652309
0.624392
0.595239
0.565262
0.535106
0.823312
0.767273
0.736163
0.708949
0.682367
0.6554
0.62717
0.597718
0.567488
0.537113
0.823402
0.76735
0.736233
0.709014
0.682428
0.655457
0.627225
0.597771
0.567549
0.537206
0.819139
0.763327
0.732412
0.705442
0.679145
0.65248
0.624554
0.595393
0.565422
0.535306
0.810551
0.755232
0.724725
0.698256
0.672537
0.646485
0.61917
0.590595
0.56113
0.531481
0.797697
0.743123
0.713226
0.687503
0.662646
0.637507
0.611104
0.583403
0.554702
0.525768
0.780667
0.727084
0.697994
0.673256
0.649535
0.6256
0.600403
0.573859
0.546169
0.518187
0.75958
0.70723
0.679136
0.655609
0.633287
0.610836
0.587127
0.562014
0.535579
0.508772
0.734584
0.683702
0.656783
0.634683
0.614007
0.593306
0.571353
0.547934
0.522987
0.497563
0.705854
0.656667
0.631093
0.610618
0.591819
0.573115
0.553171
0.531694
0.508457
0.484611
0.673591
0.626318
0.602245
0.583577
0.566865
0.550385
0.532684
0.513382
0.492065
0.46997
0.638022
0.592869
0.57044
0.553741
0.539303
0.525253
0.510008
0.493095
0.47389
0.453699
0.599395
0.556559
0.535902
0.521313
0.509312
0.49787
0.48527
0.470937
0.454021
0.435861
0.557977
0.517642
0.498871
0.48651
0.477082
0.4684
0.458607
0.447023
0.43255
0.416521
0.514058
0.476394
0.459603
0.449566
0.442819
0.437019
0.430167
0.421474
0.409578
0.395746
0.467938
0.433102
0.418373
0.410729
0.406741
0.403916
0.400107
0.39442
0.385208
0.373601
0.419937
0.38807
0.375463
0.370258
0.369079
0.369289
0.368596
0.365995
0.359549
0.350154
0.37038
0.341609
0.331169
0.328425
0.330074
0.333347
0.335809
0.336346
0.332721
0.325473
0.319606
0.294038
0.285793
0.285508
0.289974
0.296307
0.301933
0.305627
0.304857
0.299614
0.267954
0.245682
0.239643
0.241791
0.249036
0.258397
0.267165
0.273998
0.276069
0.272605
0.21577
0.196866
0.19303
0.197564
0.207522
0.21985
0.231711
0.241604
0.246432
0.244488
0.163396
0.147915
0.146263
0.153115
0.165697
0.180909
0.195796
0.208634
0.216455
0.216238
0.111171
0.0991477
0.0996475
0.108733
0.123826
0.141818
0.159655
0.175416
0.187808
0.193654
0.0594278
0.0508766
0.0534825
0.0646979
0.0821661
0.102799
0.123492
0.142034
0.157947
0.169997
0.00848956
0.0034006
0.00805625
0.0212847
0.0409701
0.0640721
0.0874722
0.108692
0.127458
0.144324
-0.0413401
-0.0429916
-0.0363551
-0.0212437
0.000483629
0.0258579
0.0517807
0.0755893
0.0969355
0.117429
-0.0898079
-0.0880048
-0.0794899
-0.0626356
-0.0390556
-0.0116212
0.0166162
0.0428868
0.0666803
0.0900243
-0.136591
-0.131424
-0.12111
-0.102654
-0.0774213
-0.0481517
-0.0178235
0.0107378
0.0368435
0.0626347
-0.18144
-0.173018
-0.160977
-0.141093
-0.114403
-0.0835314
-0.0513481
-0.0206952
0.00755719
0.0355537
-0.224145
-0.21257
-0.198905
-0.177734
-0.14981
-0.117574
-0.0837785
-0.0512496
-0.0210379
0.00896824
-0.264509
-0.249902
-0.234716
-0.212413
-0.183459
-0.150106
-0.114951
-0.0807732
-0.0488105
-0.0169606
-0.30236
-0.28486
-0.268261
-0.244979
-0.2152
-0.180972
-0.144716
-0.109128
-0.0756538
-0.0420785
-0.337556
-0.317321
-0.299419
-0.275307
-0.244903
-0.21004
-0.172942
-0.136202
-0.101443
-0.0662777
-0.369984
-0.347191
-0.328097
-0.303296
-0.27246
-0.237196
-0.199515
-0.161865
-0.125892
-0.0898451
-0.399563
-0.374404
-0.354231
-0.328878
-0.29779
-0.26235
-0.22434
-0.18605
-0.149152
-0.112479
-0.426244
-0.398924
-0.377785
-0.352009
-0.320838
-0.285433
-0.24734
-0.208672
-0.171099
-0.133797
-0.450005
-0.420742
-0.398753
-0.372673
-0.341572
-0.306399
-0.268457
-0.229662
-0.191655
-0.153872
-0.470858
-0.439879
-0.417154
-0.39088
-0.359989
-0.325228
-0.287654
-0.248973
-0.210779
-0.172745
-0.488838
-0.45638
-0.433032
-0.406667
-0.376109
-0.341918
-0.304915
-0.266581
-0.228441
-0.19039
-0.504011
-0.470313
-0.446456
-0.420094
-0.389974
-0.356494
-0.320243
-0.282474
-0.244617
-0.206784
-0.516464
-0.481769
-0.457515
-0.431241
-0.401651
-0.368999
-0.333662
-0.296657
-0.2593
-0.221919
-0.526306
-0.490857
-0.466318
-0.440209
-0.411224
-0.379498
-0.345211
-0.309152
-0.272497
-0.235805
-0.533666
-0.497704
-0.472988
-0.447115
-0.418795
-0.388072
-0.35495
-0.319995
-0.284229
-0.248459
-0.538689
-0.502447
-0.477662
-0.45209
-0.424484
-0.394818
-0.362953
-0.329238
-0.294528
-0.259916
-0.541532
-0.505236
-0.480488
-0.455275
-0.428419
-0.39985
-0.369308
-0.336946
-0.303442
-0.270217
-0.542362
-0.506228
-0.481617
-0.45682
-0.43074
-0.40329
-0.374117
-0.343198
-0.311027
-0.27942
-0.541351
-0.505583
-0.481209
-0.456878
-0.431594
-0.40527
-0.377491
-0.348082
-0.317354
-0.287589
-0.538677
-0.503465
-0.479422
-0.455606
-0.431131
-0.405928
-0.37955
-0.351696
-0.322498
-0.294797
-0.534517
-0.500036
-0.476414
-0.453159
-0.4295
-0.405404
-0.380417
-0.354142
-0.326543
-0.301124
-0.529045
-0.495453
-0.47234
-0.44969
-0.426852
-0.40384
-0.38022
-0.355527
-0.329576
-0.306651
-0.522432
-0.489872
-0.467347
-0.445345
-0.423331
-0.401373
-0.379083
-0.355958
-0.331686
-0.311456
-0.51484
-0.483437
-0.461577
-0.440264
-0.419076
-0.39814
-0.37713
-0.35554
-0.332959
-0.31561
-0.506421
-0.476286
-0.455162
-0.434579
-0.414218
-0.394267
-0.374481
-0.354374
-0.333477
-0.319174
-0.497317
-0.468548
-0.448226
-0.428412
-0.408879
-0.389876
-0.371246
-0.352554
-0.333313
-0.322186
-0.487659
-0.460339
-0.44088
-0.421872
-0.403171
-0.385078
-0.367529
-0.350166
-0.477565
-0.451766
-0.433226
-0.41506
-0.397195
-0.379973
-0.363424
-0.347285
-0.467141
-0.442926
-0.425353
-0.408063
-0.391038
-0.374651
-0.359017
-0.456484
-0.433903
-0.417342
-0.400958
-0.384777
-0.36919
-0.445678
-0.424774
-0.409261
-0.39381
-0.378478
-0.434805
-0.415608
-0.401172
-0.386675
-0.423936
-0.406468
-0.393129
-0.379599
-0.413143
-0.397408
-0.385178
-0.402489
-0.388482
-0.392039
-0.379738
-0.381848
-0.37197
-0.217664
-0.227654
-0.236566
-0.244434
-0.251305
-0.257241
-0.262319
-0.26663
-0.270278
-0.273381
-0.276069
-0.193955
-0.203846
-0.212931
-0.221244
-0.228832
-0.235753
-0.242073
-0.247873
-0.253242
-0.25828
-0.263098
-0.172664
-0.182327
-0.191404
-0.199921
-0.207911
-0.215413
-0.222472
-0.229138
-0.235468
-0.241526
-0.247381
-0.153371
-0.16261
-0.171409
-0.17979
-0.187777
-0.195398
-0.202684
-0.209675
-0.216412
-0.222946
-0.229332
-0.135993
-0.144757
-0.153195
-0.161324
-0.169165
-0.17674
-0.184078
-0.191209
-0.19817
-0.205001
-0.211749
-0.120366
-0.128632
-0.136657
-0.144457
-0.152049
-0.159453
-0.166692
-0.17379
-0.180777
-0.187686
-0.194556
-0.106277
-0.114034
-0.121612
-0.129026
-0.13629
-0.14342
-0.150435
-0.157356
-0.164207
-0.171015
-0.177811
-0.093541
-0.10079
-0.107908
-0.114904
-0.121792
-0.128585
-0.135299
-0.14195
-0.148559
-0.155147
-0.161742
-0.0819965
-0.0887494
-0.0954041
-0.10197
-0.108457
-0.114876
-0.12124
-0.127563
-0.133861
-0.140151
-0.146456
-0.0715006
-0.0777734
-0.0839728
-0.0901063
-0.096182
-0.102209
-0.108197
-0.114157
-0.120103
-0.126047
-0.132008
-0.061933
-0.0677462
-0.0735039
-0.0792122
-0.0848776
-0.0905072
-0.0961088
-0.101691
-0.107264
-0.112838
-0.118426
-0.0531934
-0.0585696
-0.0639034
-0.0691997
-0.0744636
-0.0797006
-0.0849167
-0.0901184
-0.0953133
-0.100509
-0.105716
-0.045196
-0.0501595
-0.0550903
-0.0599921
-0.064869
-0.0697251
-0.0745649
-0.0793934
-0.0842159
-0.0890387
-0.0938686
-0.0378665
-0.0424432
-0.0469942
-0.0515224
-0.0560307
-0.0605225
-0.065001
-0.0694699
-0.0739332
-0.0783952
-0.0828608
-0.0311437
-0.0353596
-0.0395549
-0.0437318
-0.0478926
-0.0520397
-0.0561756
-0.0603029
-0.0644245
-0.0685434
-0.0726631
-0.024973
-0.028854
-0.0327182
-0.0365674
-0.0404031
-0.0442271
-0.0480412
-0.0518473
-0.0556475
-0.059444
-0.0632391
-0.0193083
-0.0228796
-0.026437
-0.0299818
-0.033515
-0.0370381
-0.0405522
-0.0440588
-0.0475593
-0.0510552
-0.0545482
-0.0141074
-0.0173933
-0.0206676
-0.023931
-0.0271844
-0.0304288
-0.0336648
-0.0368937
-0.0401163
-0.0433337
-0.046547
-0.00933282
-0.0123566
-0.0153704
-0.0183747
-0.0213702
-0.0243574
-0.0273368
-0.0303093
-0.0332754
-0.0362358
-0.0391913
-0.00495114
-0.00773453
-0.0105093
-0.0132757
-0.016034
-0.0187847
-0.0215281
-0.0242646
-0.0269946
-0.0297186
-0.0324371
-0.000931587
-0.00349505
-0.00605089
-0.0085992
-0.0111401
-0.0136738
-0.0162005
-0.0187204
-0.0212337
-0.0237407
-0.0262418
0.00275346
0.000390954
-0.00196469
-0.00431345
-0.00665531
-0.00899029
-0.0113185
-0.0136399
-0.0159546
-0.0182628
-0.0205645
-0.02286
0.00612929
0.0039502
0.00177741
-0.000388989
-0.00254886
-0.00470211
-0.00684866
-0.00898846
-0.0111215
-0.0132477
-0.0153672
-0.0174799
0.0092188
0.00720705
0.00520111
0.00320119
0.00120752
-0.00077971
-0.00276033
-0.0047342
-0.00670118
-0.00866117
-0.0106141
-0.0125599
0.0120431
0.0101838
0.00833001
0.00648193
0.00463988
0.00280413
0.000974911
-0.000847533
-0.002663
-0.0044713
-0.00627226
-0.00806574
0.0146217
0.0129013
0.011186
0.00947619
0.00777226
0.00607452
0.00438327
0.00269881
0.0010214
-0.000648709
-0.00231127
-0.00396608
0.0169721
0.0153779
0.0137886
0.0122047
0.0106265
0.00905433
0.00748863
0.00592972
0.0043779
0.00283349
0.00129677
-0.000231993
0.0191103
0.0176308
0.0161561
0.0146865
0.0132225
0.0117645
0.0103129
0.00886801
0.00743026
0.00599997
0.00457745
0.00316302
0.0210511
0.0196756
0.0183048
0.0169389
0.0155786
0.0142241
0.0128759
0.0115345
0.0102001
0.0088732
0.00755411
0.00624315
0.0228075
0.0215263
0.0202496
0.0189777
0.0177111
0.0164504
0.0151959
0.013948
0.0127071
0.0114736
0.010248
0.00903042
0.0243918
0.0231958
0.022004
0.020817
0.0196352
0.0184591
0.0172891
0.0161256
0.0149691
0.0138198
0.0126783
0.0115448
0.0258148
0.0246954
0.0235803
0.0224697
0.0213642
0.0202643
0.0191703
0.0180827
0.017002
0.0159284
0.0148623
0.0138042
0.0270862
0.0260358
0.0249893
0.0239473
0.0229102
0.0218786
0.0208528
0.0198331
0.0188202
0.0178142
0.0168156
0.0158248
0.0282148
0.0272257
0.0262406
0.0252598
0.0242838
0.023313
0.0223479
0.0213888
0.0204362
0.0194903
0.0185517
0.0176205
0.029208
0.0282735
0.0273427
0.0264161
0.0254942
0.0245773
0.0236659
0.0227603
0.0218609
0.0209681
0.0200822
0.0192036
0.030072
0.0291853
0.0283023
0.0274234
0.0265489
0.0256793
0.0248149
0.0239561
0.0231033
0.0222569
0.0214171
0.0205843
0.0308123
0.0299671
0.0291255
0.0282878
0.0274543
0.0266255
0.0258018
0.0249834
0.0241708
0.0233642
0.0225639
0.0217704
0.0314318
0.030622
0.0298156
0.029013
0.0282145
0.0274204
0.0266311
0.025847
0.0250682
0.0242953
0.0235284
0.0227678
0.0319338
0.0311532
0.0303758
0.029602
0.0288321
0.0280665
0.0273055
0.0265493
0.0257982
0.0250526
0.0243127
0.0235788
0.0323164
0.031559
0.0308048
0.030054
0.029307
0.028564
0.0278253
0.0270912
0.0263619
0.0256377
0.0249188
0.0242054
0.0325802
0.0318391
0.0311011
0.0303664
0.0296353
0.028908
0.0281847
0.0274658
0.0267514
0.0260418
0.0253372
0.0246377
0.0327153
0.0319859
0.0312594
0.030536
0.0298159
0.0290993
0.0283865
0.0276775
0.0269726
0.0262719
0.0255756
0.0248839
0.186433
0.158753
0.131373
0.106314
0.081386
0.0565874
0.0322977
0.00862302
-0.0143879
-0.0366763
-0.0581371
-0.0783746
-0.0982074
-0.116929
-0.134541
-0.15111
-0.166624
-0.181048
-0.194367
-0.206571
0.17327
0.148101
0.121622
0.0985236
0.0760742
0.0537434
0.0319519
0.0108286
-0.00963089
-0.0294105
-0.0485288
-0.0670028
-0.0841133
-0.100872
-0.116761
-0.131758
-0.145912
-0.159215
-0.171653
-0.18323
0.155763
0.132212
0.10797
0.0872734
0.0675422
0.0479847
0.0289239
0.0104918
-0.0073381
-0.0245683
-0.0411794
-0.0570963
-0.0719868
-0.0872354
-0.101512
-0.114975
-0.127787
-0.139964
-0.151498
-0.162394
0.139487
0.118387
0.0970074
0.0787614
0.0614306
0.0442526
0.0274853
0.0112624
-0.00444275
-0.019651
-0.0343682
-0.0486748
-0.0627088
-0.0753689
-0.0879361
-0.100096
-0.111733
-0.122866
-0.133512
-0.143677
0.125424
0.106674
0.0879517
0.0718913
0.0566228
0.0414947
0.026715
0.0124029
-0.0014633
-0.0149066
-0.0279257
-0.0405218
-0.0527083
-0.0643472
-0.0757673
-0.0867918
-0.0973913
-0.107596
-0.117424
-0.126887
0.113484
0.0967808
0.0803913
0.0662487
0.0527673
0.0394158
0.0263633
0.0137079
0.0014301
-0.0104941
-0.0220703
-0.0332995
-0.0441783
-0.0546735
-0.0650094
-0.0749948
-0.0846449
-0.093994
-0.103058
-0.111845
0.103317
0.0884322
0.0740907
0.0616391
0.0497206
0.0379132
0.0263589
0.0151356
0.00422471
-0.00639734
-0.0167397
-0.0268101
-0.0366319
-0.0462368
-0.055411
-0.0644355
-0.0732485
-0.0818276
-0.0901843
-0.0983308
0.0946694
0.0814139
0.068856
0.057882
0.0473259
0.0368588
0.0266035
0.0166218
0.00689652
-0.00259303
-0.0118552
-0.0208953
-0.0297216
-0.0383442
-0.0467285
-0.0549682
-0.0630273
-0.0709022
-0.0786058
-0.0861492
0.0873373
0.0755316
0.064517
0.0548263
0.0454558
0.0361527
0.0270252
0.0181223
0.00942803
0.000924706
-0.00739544
-0.0155377
-0.0235086
-0.0313109
-0.038933
-0.0464686
-0.053842
-0.0610674
-0.0681627
-0.0751368
0.0811266
0.0706047
0.0609227
0.0523452
0.0440071
0.035717
0.0275711
0.0196082
0.0118137
0.00417228
-0.00332311
-0.0106776
-0.0178975
-0.024991
-0.0319631
-0.0388
-0.0455379
-0.0521726
-0.0587068
-0.0651472
0.0758659
0.0664781
0.0579471
0.0503362
0.0428988
0.0354927
0.0282039
0.0210634
0.014058
0.00717448
0.000407062
-0.00624865
-0.0127978
-0.0192486
-0.0256104
-0.0318422
-0.0380096
-0.0441027
-0.0501172
-0.0560585
0.0714102
0.0630227
0.0554872
0.048717
0.0420672
0.0354348
0.0288972
0.0224793
0.0161689
0.00995537
0.00383397
-0.00219883
-0.008147
-0.0140153
-0.0198086
-0.0255195
-0.0311728
-0.0367647
-0.0422957
-0.0477703
0.0676371
0.0601313
0.0534583
0.0474211
0.0414618
0.0355088
0.0296317
0.0238506
0.0181547
0.0125352
0.00698832
0.00151127
-0.00389929
-0.00924701
-0.0145349
-0.0197618
-0.0249437
-0.0300743
-0.0351568
-0.0401962
0.0644435
0.0577152
0.051791
0.0463946
0.0410424
0.0356875
0.0303932
0.0251754
0.0200246
0.0149337
0.00989979
0.00492082
-5.80185e-06
-0.00488277
-0.00971116
-0.014489
-0.0192459
-0.0239559
-0.0286255
-0.0332613
0.061743
0.0557009
0.0504282
0.0455933
0.0407762
0.0359495
0.0311705
0.0264522
0.0217862
0.0171665
0.0125912
0.00805842
0.00356635
-0.000887315
-0.00530544
-0.00969049
-0.0140342
-0.0183517
-0.0226419
-0.0269052
0.0594627
0.0540269
0.0493225
0.0449808
0.0406365
0.0362773
0.0319555
0.0276814
0.0234477
0.0192496
0.0150856
0.0109547
0.00685543
0.00278618
-0.00125554
-0.00527274
-0.00925123
-0.0132124
-0.0171538
-0.0210736
0.0575409
0.0526421
0.048434
0.0445265
0.040601
0.0366566
0.0327412
0.0288631
0.0250158
0.0211956
0.0174014
0.0136327
0.0098886
0.00616792
0.00246948
-0.00120805
-0.00486199
-0.00849919
-0.0121192
-0.0157219
0.0559251
0.0515027
0.0477291
0.0442044
0.0406505
0.037075
0.0335215
0.0299969
0.0264955
0.0230142
0.0195526
0.0161104
0.012687
0.00928162
0.00589358
0.00252217
-0.000831929
-0.00417184
-0.00749746
-0.0108091
0.0545704
0.0505715
0.0471788
0.0439923
0.0407686
0.0375215
0.0342908
0.0310824
0.0278909
0.0247141
0.0215518
0.0184041
0.0152707
0.0121511
0.00904481
0.00595162
0.00287176
-0.000196718
-0.00325341
-0.0062986
0.0534379
0.0498164
0.0467581
0.0438706
0.0409407
0.0379865
0.0350442
0.0321186
0.0292052
0.0263021
0.0234095
0.0205276
0.0176564
0.0147955
0.011945
0.00910468
0.00627487
0.00345372
0.000642603
-0.00215886
0.052494
0.0492094
0.0464451
0.0438223
0.0411543
0.0384616
0.0357771
0.033105
0.0304412
0.0277844
0.0251348
0.022493
0.0198589
0.0172327
0.0146143
0.0120042
0.00940286
0.00680593
0.0042184
0.00163951
0.0517094
0.0487261
0.0462207
0.0438325
0.041398
0.0389389
0.0364852
0.0340404
0.0316008
0.0291656
0.0267351
0.02431
0.0218903
0.0194764
0.0170683
0.0146663
0.0122705
0.00988156
0.00749889
0.0051228
0.0510586
0.0483454
0.0460681
0.0438881
0.041662
0.039412
0.037165
0.034924
0.0326861
0.0304504
0.0282175
0.025988
0.0237623
0.0215407
0.0193235
0.0171106
0.0149019
0.012702
0.0105059
0.0083146
0.0505195
0.0480487
0.0459729
0.0439776
0.0419378
0.0398749
0.0378132
0.0357554
0.0336988
0.0316429
0.0295884
0.0275359
0.0254858
0.0234386
0.0213946
0.0193542
0.0173176
0.0152861
0.0132588
0.0112361
0.0500729
0.04782
0.0459223
0.0440912
0.0422179
0.0403226
0.0384272
0.0365339
0.0346405
0.0327466
0.030853
0.0289603
0.0270691
0.0251797
0.0232926
0.0214083
0.0195272
0.0176499
0.0157765
0.0139074
0.0497022
0.0476453
0.0459052
0.0442203
0.0424959
0.0407509
0.0390047
0.0372592
0.0355128
0.033765
0.0320166
0.0302684
0.0285208
0.0267743
0.0250295
0.0232868
0.0215468
0.0198099
0.0180764
0.0163469
0.0493932
0.0475128
0.0459124
0.0443576
0.0427665
0.0411563
0.039544
0.0379315
0.0363173
0.0347012
0.0330839
0.0314661
0.0298485
0.0282314
0.0266155
0.0250013
0.0233892
0.0217798
0.0201735
0.0185707
0.0491337
0.0474122
0.0459359
0.044497
0.0430253
0.041536
0.040044
0.0385511
0.0370559
0.0355585
0.0340595
0.0325596
0.0310594
0.0295594
0.0280602
0.0265623
0.0250663
0.0235726
0.0220817
0.0205941
0.0489135
0.0473352
0.0459691
0.0446336
0.0432687
0.0418879
0.0405039
0.0391185
0.0377304
0.0363399
0.0349476
0.0335542
0.0321601
0.030766
0.0293724
0.0279798
0.0265889
0.0252
0.0238137
0.0224306
0.0487242
0.0472747
0.0460066
0.0447633
0.043494
0.0422105
0.0409235
0.0396346
0.0383429
0.0370487
0.0357525
0.034455
0.0331567
0.0318582
0.0305601
0.0292628
0.0279668
0.0266729
0.0253813
0.0240927
0.048559
0.0472251
0.0460443
0.0448831
0.0436994
0.0425029
0.0413029
0.0401006
0.0388955
0.0376879
0.0364782
0.0352671
0.0340551
0.0328428
0.0316307
0.0304193
0.0292092
0.0280009
0.0267949
0.0255917
0.0484124
0.0471822
0.0460788
0.0449909
0.0438835
0.0427648
0.0416426
0.0405179
0.0393904
0.0382604
0.0371283
0.0359948
0.0348604
0.0337256
0.032591
0.031457
0.0303242
0.0291931
0.0280641
0.0269378
0.0482806
0.0471428
0.0461081
0.0450852
0.0440457
0.0429964
0.0419435
0.0408881
0.03983
0.0387694
0.0377068
0.0366428
0.0355779
0.0345126
0.0334474
0.0323828
0.0313193
0.0302576
0.0291976
0.0281403
0.0481605
0.0471046
0.0461306
0.0451652
0.0441859
0.043198
0.0422067
0.0412129
0.0402164
0.0392175
0.0382167
0.0372146
0.0362116
0.0352083
0.034205
0.0332023
0.0322007
0.0312005
0.0302027
0.0292073
0.0480504
0.0470666
0.0461458
0.0452309
0.0443045
0.0433708
0.0424338
0.0414942
0.0405521
0.0396078
0.0386618
0.0377144
0.0367663
0.0358178
0.0348695
0.0339217
0.032975
0.0320297
0.0310867
0.0301459
0.0479496
0.0470283
0.0461536
0.0452827
0.0444023
0.0435157
0.042626
0.0417338
0.0408393
0.0399427
0.0390445
0.0381452
0.0372451
0.0363448
0.0354446
0.0345451
0.0336466
0.0327496
0.0318546
0.0309619
0.0478582
0.0469902
0.0461549
0.0453215
0.0444805
0.0436343
0.0427852
0.0419338
0.0410802
0.0402248
0.0393679
0.03851
0.0376516
0.0367929
0.0359345
0.0350767
0.03422
0.0333648
0.0325115
0.0316605
0.0477767
0.0469528
0.0461501
0.0453479
0.0445397
0.0437273
0.0429122
0.042095
0.0412758
0.0404551
0.0396332
0.0388104
0.0379871
0.0371638
0.0363409
0.0355186
0.0346975
0.0338779
0.0330601
0.0322447
0.0477073
0.0469185
0.0461418
0.0453645
0.0445827
0.0437974
0.0430098
0.0422204
0.0414293
0.0406368
0.0398434
0.0390493
0.038255
0.0374608
0.036667
0.0358741
0.0350823
0.034292
0.0335036
0.0327174
0.0476497
0.0468864
0.0461286
0.0453695
0.0446072
0.0438422
0.0430753
0.0423068
0.0415371
0.0407664
0.0399951
0.0392234
0.0384517
0.0376803
0.0369096
0.0361398
0.0353712
0.0346043
0.0338393
0.0330766
0.0476109
0.0468638
0.0461179
0.0453707
0.0446211
0.0438697
0.0431168
0.0423628
0.0416079
0.0408523
0.0400964
0.0393403
0.0385845
0.0378293
0.0370747
0.0363213
0.0355692
0.0348188
0.0340703
0.033324
0.0475847
0.0468419
0.0460986
0.0453543
0.0446088
0.0438622
0.043115
0.0423674
0.0416196
0.0408718
0.0401243
0.0393773
0.038631
0.0378858
0.0371417
0.0363991
0.0356582
0.0349191
0.0341821
0.0334475
0.202834
0.204219
0.207492
0.212028
0.217793
0.224552
0.23216
0.240422
0.249122
0.257989
0.26669
0.274811
0.281843
0.287174
0.290082
0.289752
0.285294
0.275803
0.260352
0.237782
0.200532
0.201488
0.202808
0.205915
0.210217
0.215648
0.221972
0.229022
0.236581
0.244411
0.252215
0.259636
0.266243
0.271519
0.274864
0.275601
0.272994
0.266283
0.254727
0.237667
0.2146
0.180958
0.200017
0.201272
0.204206
0.208255
0.213329
0.219194
0.225662
0.232504
0.239462
0.24623
0.25244
0.257663
0.261402
0.263098
0.262145
0.257918
0.249805
0.237256
0.219874
0.197742
0.167205
0.198407
0.199587
0.202329
0.206101
0.210789
0.216157
0.222
0.228078
0.234118
0.239801
0.244758
0.248566
0.250753
0.250807
0.2482
0.242414
0.232983
0.219539
0.20188
0.180265
0.151994
0.196655
0.197753
0.200292
0.20377
0.208053
0.212902
0.2181
0.223394
0.228502
0.2331
0.236823
0.239262
0.239979
0.238518
0.234432
0.227313
0.216831
0.202778
0.185105
0.164154
0.138119
0.194758
0.19577
0.198096
0.201267
0.205131
0.209447
0.213989
0.218495
0.222679
0.22622
0.228761
0.22992
0.229301
0.226511
0.221187
0.213027
0.201825
0.187501
0.170128
0.150087
0.126188
0.192711
0.193633
0.195739
0.198592
0.202025
0.205798
0.209677
0.213399
0.216676
0.219195
0.22062
0.220599
0.218785
0.21485
0.208517
0.19958
0.187936
0.173605
0.156743
0.137736
0.11582
0.190512
0.191341
0.19322
0.195745
0.198738
0.201962
0.205178
0.208125
0.21052
0.212064
0.212446
0.211351
0.208483
0.203583
0.196449
0.186962
0.175103
0.160964
0.144753
0.126842
0.106776
0.18816
0.188892
0.190538
0.192729
0.195277
0.197951
0.20051
0.202698
0.204246
0.204871
0.204291
0.202234
0.198456
0.192762
0.185021
0.175185
0.163299
0.149508
0.134045
0.117262
0.0989188
0.185653
0.186285
0.187696
0.189549
0.191651
0.193776
0.195691
0.197147
0.197889
0.197659
0.196206
0.193303
0.188758
0.182433
0.174259
0.164247
0.15249
0.139163
0.124512
0.108861
0.0921123
0.182992
0.183523
0.184697
0.186209
0.187868
0.189455
0.190744
0.1915
0.191486
0.190471
0.18824
0.184607
0.17943
0.172626
0.164176
0.154134
0.142629
0.129851
0.116044
0.101503
0.0862241
0.180179
0.180608
0.181545
0.182719
0.183941
0.185004
0.185691
0.185786
0.185072
0.183347
0.180433
0.176185
0.170507
0.16336
0.154768
0.144819
0.13366
0.121488
0.108534
0.0950655
0.0811353
0.177216
0.177544
0.178247
0.179087
0.179883
0.18044
0.180557
0.180034
0.178681
0.176325
0.172823
0.168071
0.162012
0.154645
0.146027
0.136268
0.125524
0.113991
0.101884
0.089438
0.0767407
0.174109
0.174336
0.174809
0.175324
0.175709
0.175784
0.175365
0.174274
0.172346
0.169438
0.165443
0.16029
0.15396
0.146481
0.137933
0.12844
0.118162
0.107283
0.0960005
0.0845207
0.0729476
0.170864
0.170992
0.171242
0.171442
0.171435
0.171056
0.170141
0.168534
0.166096
0.162717
0.158318
0.152862
0.146359
0.13886
0.130461
0.121292
0.111511
0.101288
0.0907994
0.0802255
0.0696748
0.167488
0.16752
0.167557
0.167456
0.167078
0.166277
0.164908
0.16284
0.159961
0.156187
0.15147
0.1458
0.13921
0.131769
0.123582
0.11478
0.105512
0.0959358
0.0862036
0.0764739
0.0668518
0.163991
0.163931
0.163765
0.16338
0.162657
0.161468
0.159691
0.157218
0.153963
0.14987
0.144914
0.139111
0.132509
0.12519
0.117263
0.108856
0.100108
0.0911597
0.0821438
0.073197
0.0644172
0.160384
0.160237
0.15988
0.159231
0.15819
0.15665
0.154512
0.151691
0.148125
0.143783
0.138662
0.132795
0.126245
0.1191
0.11147
0.103475
0.095244
0.0868997
0.0785573
0.0703342
0.0623179
0.15668
0.156451
0.155917
0.155025
0.153696
0.151845
0.149393
0.14628
0.142465
0.137939
0.132719
0.12685
0.120405
0.113475
0.106167
0.0985929
0.0908679
0.0831005
0.0753882
0.067832
0.0605078
0.152892
0.152587
0.151893
0.150781
0.149195
0.147072
0.144355
0.141003
0.136999
0.13235
0.127088
0.12127
0.114973
0.108289
0.101319
0.0941659
0.0869322
0.0797118
0.0725868
0.0656438
0.0589466
0.149037
0.148663
0.147825
0.146517
0.144707
0.142352
0.139415
0.135877
0.131738
0.12702
0.121767
0.116044
0.10993
0.103514
0.0968906
0.0901538
0.0833926
0.0766878
0.0701084
0.0637282
0.0575993
0.145131
0.144695
0.14373
0.142251
0.14025
0.137703
0.134592
0.130916
0.126691
0.121952
0.116753
0.111161
0.105256
0.0991232
0.0928493
0.0865185
0.0802083
0.0739877
0.0679136
0.0620492
0.0564355
0.141192
0.140703
0.139628
0.138004
0.135844
0.133142
0.1299
0.126132
0.121866
0.117149
0.112039
0.106607
0.100931
0.0950894
0.0891626
0.0832246
0.0773425
0.0715744
0.0659673
0.0605751
0.0554284
0.137239
0.136704
0.135538
0.133794
0.131506
0.128687
0.125354
0.121533
0.117267
0.112607
0.107618
0.102368
0.0969328
0.0913865
0.0858003
0.0802395
0.0747615
0.0694151
0.0642387
0.0592781
0.0545549
0.133293
0.132719
0.131479
0.12964
0.127255
0.124353
0.120964
0.117129
0.112896
0.108325
0.103478
0.0984275
0.0932418
0.0879896
0.0827344
0.0775332
0.072435
0.0674804
0.0627004
0.058134
0.0537949
0.129374
0.128769
0.127471
0.125561
0.123107
0.120154
0.116743
0.112925
0.108755
0.104296
0.0996121
0.0947709
0.0898379