2 	-5.88397 	1.07553e-17 	-0.0258312
2 	-5.65577 	1.249e-17 	-0.0262764
2 	-5.43516 	1.70003e-17 	-0.0271296
2 	-5.22188 	2.32453e-17 	-0.028364
2 	-5.01569 	2.32453e-17 	-0.0299581
2 	-4.81636 	2.15106e-17 	-0.0318962
2 	-4.62366 	2.15106e-17 	-0.0341665
2 	-4.43736 	2.15106e-17 	-0.03676
2 	-4.25725 	2.15106e-17 	-0.0396706
2 	-4.08314 	2.15106e-17 	-0.0428935
2 	-3.91481 	2.15106e-17 	-0.0464251
2 	-3.75208 	2.15106e-17 	-0.0502625
2 	-3.59476 	1.97758e-17 	-0.0544033
2 	-3.44266 	1.80411e-17 	-0.0588446
2 	-3.29563 	1.80411e-17 	-0.0635833
2 	-3.15348 	1.80411e-17 	-0.0686156
2 	-3.01607 	1.80411e-17 	-0.0739364
2 	-2.88321 	1.63064e-17 	-0.0795396
2 	-2.75478 	1.45717e-17 	-0.0854175
2 	-2.63062 	1.2837e-17 	-0.0915608
2 	-2.51058 	1.11022e-17 	-0.0979585
2 	-2.39453 	1.11022e-17 	-0.104598
2 	-2.28235 	1.11022e-17 	-0.111464
2 	-2.17389 	1.11022e-17 	-0.11854
2 	-2.06904 	1.11022e-17 	-0.125809
2 	-1.96767 	1.11022e-17 	-0.133252
2 	-1.86968 	1.11022e-17 	-0.140846
2 	-1.77494 	1.11022e-17 	-0.148571
2 	-1.68335 	1.11022e-17 	-0.156405
2 	-1.59481 	9.36751e-18 	-0.164326
2 	-1.50921 	8.32667e-18 	-0.172308
2 	-1.42646 	9.02056e-18 	-0.18032
2 	-1.34646 	9.02056e-18 	-0.18832
2 	-1.26911 	9.02056e-18 	-0.196235
2 	-1.19434 	9.02056e-18 	-0.203951
2 	-1.12206 	9.02056e-18 	-0.211298
2 	-1.05218 	9.02056e-18 	-0.21805
2 	-0.98462 	9.02056e-18 	-0.223966
2 	-0.919308 	9.02056e-18 	-0.228853
2 	-0.856167 	9.02056e-18 	-0.232659
2 	-0.795126 	9.02056e-18 	-0.235482
2 	-0.736114 	9.02056e-18 	-0.237431
2 	-0.692107 	9.02056e-18 	-0.238143
2 	-0.661733 	8.18292e-18 	-0.238766
2 	-0.630624 	7.00694e-18 	-0.239238
2 	-0.598802 	8.83494e-18 	-0.239557
2 	-0.579342 	9.89952e-18 	-0.239767
2 	-0.562917 	1.06439e-17 	-0.240046
2 	-0.533114 	1.70003e-17 	-0.240182
2 	-0.499304 	1.97758e-17 	-0.240232
2 	-0.464891 	1.79777e-17 	-0.240206
2 	-0.429909 	1.50794e-17 	-0.240115
2 	-0.394394 	1.46853e-17 	-0.239969
2 	-0.364702 	1.65428e-17 	-0.239779
2 	-0.346579 	1.59595e-17 	-0.240034
2 	-0.32192 	1.59595e-17 	-0.239822
2 	-0.285043 	1.31839e-17 	-0.239586
2 	-0.247798 	1.04083e-17 	-0.239338
2 	-0.21023 	9.02056e-18 	-0.239089
2 	-0.172387 	5.55112e-18 	-0.238851
2 	-0.134316 	5.21136e-18 	-0.238634
2 	-0.096068 	7.69563e-18 	-0.238449
2 	-0.057692 	1.26738e-17 	-0.238303
2 	-0.0192392 	1.75266e-17 	-0.238203
2 	0.0192392 	1.62255e-17 	-0.238151
2 	0.057692 	1.33244e-17 	-0.23815
2 	0.096068 	1.13819e-17 	-0.238197
2 	0.134316 	8.6808e-18 	-0.238286
2 	0.172387 	6.93889e-18 	-0.238412
2 	0.21023 	8.67362e-18 	-0.238566
2 	0.247798 	8.67362e-18 	-0.238737
2 	0.285043 	9.71445e-18 	-0.238915
2 	0.32192 	1.14492e-17 	-0.23909
2 	0.346579 	9.85127e-18 	-0.239249
2 	0.364702 	6.61822e-18 	-0.238837
2 	0.394394 	6.35864e-18 	-0.238971
2 	0.429909 	1.16966e-17 	-0.239072
2 	0.464891 	1.4248e-17 	-0.239129
2 	0.499304 	1.49186e-17 	-0.239131
2 	0.533114 	1.31839e-17 	-0.239068
2 	0.562917 	1.26014e-17 	-0.238928
2 	0.579342 	1.35918e-17 	-0.238428
2 	0.598802 	1.36922e-17 	-0.238218
2 	0.630624 	1.60275e-17 	-0.23791
2 	0.661733 	1.82443e-17 	-0.237464
2 	0.692107 	1.94289e-17 	-0.236858
2 	0.736114 	1.94289e-17 	-0.236143
2 	0.795126 	1.94289e-17 	-0.234187
2 	0.856167 	1.94289e-17 	-0.231378
2 	0.919308 	1.94289e-17 	-0.227613
2 	0.98462 	2.11636e-17 	-0.22279
2 	1.05218 	2.28983e-17 	-0.216957
2 	1.12206 	2.28983e-17 	-0.210299
2 	1.19434 	2.28983e-17 	-0.20305
2 	1.26911 	2.28983e-17 	-0.19543
2 	1.34646 	2.28983e-17 	-0.187606
2 	1.42646 	2.18575e-17 	-0.17969
2 	1.50921 	2.11636e-17 	-0.171754
2 	1.59481 	2.15106e-17 	-0.163843
2 	1.68335 	2.15106e-17 	-0.155986
2 	1.77494 	2.15106e-17 	-0.148208
2 	1.86968 	2.15106e-17 	-0.140534
2 	1.96767 	2.15106e-17 	-0.132985
2 	2.06904 	2.18575e-17 	-0.125582
2 	2.17389 	2.04697e-17 	-0.118349
2 	2.28235 	1.8735e-17 	-0.111303
2 	2.39453 	2.32453e-17 	-0.104463
2 	2.51058 	2.77556e-17 	-0.0978471
2 	2.63062 	2.77556e-17 	-0.0914693
2 	2.75478 	2.77556e-17 	-0.085343
2 	2.88321 	2.77556e-17 	-0.0794795
2 	3.01607 	2.77556e-17 	-0.0738886
2 	3.15348 	2.60209e-17 	-0.0685781
2 	3.29563 	2.42861e-17 	-0.0635545
2 	3.44266 	2.60209e-17 	-0.0588229
2 	3.59476 	2.77556e-17 	-0.0543876
2 	3.75208 	2.77556e-17 	-0.0502517
2 	3.91481 	2.77556e-17 	-0.0464182
2 	4.08314 	2.77556e-17 	-0.0428899
2 	4.25725 	2.94903e-17 	-0.0396696
2 	4.43736 	3.1225e-17 	-0.0367611
2 	4.62366 	3.1225e-17 	-0.0341691
2 	4.81636 	3.1225e-17 	-0.0319001
2 	5.01569 	3.1225e-17 	-0.029963
2 	5.22188 	3.1225e-17 	-0.0283695
2 	5.43516 	3.1225e-17 	-0.0271356
2 	5.65577 	3.1225e-17 	-0.0262827
2 	5.88397 	3.07748e-17 	-0.0258377
