/*--------------------------------*- C++ -*----------------------------------*\
  =========                 |
  \\      /  F ield         | OpenFOAM: The Open Source CFD Toolbox
   \\    /   O peration     | Website:  https://openfoam.org
    \\  /    A nd           | Version:  7
     \\/     M anipulation  |
\*---------------------------------------------------------------------------*/
FoamFile
{
    version     2.0;
    format      ascii;
    class       volScalarField;
    location    "5";
    object      p;
}
// * * * * * * * * * * * * * * * * * * * * * * * * * * * * * * * * * * * * * //

dimensions      [0 2 -2 0 0 0 0];

internalField   nonuniform List<scalar> 
6386
(
-0.374308
-0.375813
-0.377445
-0.379385
-0.377138
-0.3818
-0.379498
-0.384828
-0.38235
-0.378483
-0.388565
-0.385785
-0.381567
-0.376246
-0.393089
-0.389856
-0.385243
-0.37954
-0.398448
-0.394593
-0.389534
-0.383427
-0.377173
-0.404654
-0.400015
-0.394449
-0.387898
-0.381173
-0.374848
-0.411703
-0.406135
-0.399999
-0.392947
-0.385663
-0.378513
-0.371251
-0.419583
-0.412959
-0.406196
-0.398572
-0.390605
-0.382447
-0.373653
-0.363942
-0.428276
-0.420493
-0.413052
-0.40477
-0.395965
-0.38657
-0.375942
-0.363739
-0.348648
-0.437762
-0.428741
-0.420577
-0.41153
-0.401696
-0.390777
-0.377992
-0.363152
-0.34569
-0.328411
-0.448007
-0.437694
-0.428763
-0.418821
-0.407724
-0.394935
-0.379683
-0.362125
-0.342378
-0.323109
-0.458963
-0.447326
-0.437581
-0.426584
-0.413935
-0.398891
-0.380908
-0.360607
-0.338697
-0.317625
-0.470556
-0.457585
-0.446963
-0.434721
-0.420173
-0.402483
-0.381568
-0.358558
-0.334619
-0.311899
-0.482681
-0.468385
-0.456807
-0.443087
-0.42624
-0.405546
-0.381574
-0.355935
-0.33011
-0.305873
-0.495196
-0.4796
-0.466963
-0.451488
-0.431914
-0.407922
-0.380844
-0.352689
-0.325124
-0.299487
-0.507918
-0.491062
-0.47724
-0.459681
-0.436961
-0.409459
-0.379295
-0.348769
-0.31961
-0.292682
-0.520623
-0.502561
-0.487399
-0.467386
-0.441147
-0.410013
-0.376848
-0.344116
-0.313509
-0.285399
-0.533049
-0.513843
-0.497159
-0.474301
-0.444245
-0.40945
-0.37342
-0.338668
-0.306758
-0.27758
-0.544897
-0.524619
-0.506202
-0.480116
-0.446039
-0.407643
-0.36893
-0.332357
-0.299296
-0.269171
-0.555839
-0.534567
-0.51418
-0.484527
-0.44633
-0.404472
-0.363297
-0.325116
-0.291058
-0.260126
-0.565525
-0.543344
-0.520736
-0.487244
-0.444939
-0.399828
-0.356443
-0.316876
-0.281986
-0.250402
-0.573593
-0.550589
-0.525511
-0.488001
-0.441702
-0.39361
-0.348293
-0.307574
-0.272027
-0.239964
-0.579678
-0.555936
-0.528164
-0.486561
-0.436479
-0.385726
-0.338776
-0.29715
-0.261137
-0.228788
-0.583423
-0.559027
-0.528379
-0.482719
-0.429151
-0.376098
-0.327828
-0.285546
-0.24928
-0.216851
-0.584492
-0.55952
-0.52588
-0.476304
-0.419622
-0.364661
-0.315393
-0.27271
-0.236403
-0.204091
-0.582573
-0.557103
-0.520434
-0.467186
-0.40782
-0.351368
-0.301434
-0.258603
-0.222437
-0.190334
-0.577394
-0.551504
-0.511858
-0.455271
-0.3937
-0.33619
-0.28593
-0.243214
-0.207332
-0.17532
-0.568726
-0.542499
-0.500015
-0.440503
-0.377238
-0.319112
-0.268872
-0.226556
-0.191156
-0.159025
-0.55639
-0.529924
-0.484815
-0.422863
-0.358438
-0.300135
-0.250258
-0.208636
-0.173995
-0.142228
-0.540262
-0.513669
-0.466219
-0.402364
-0.337327
-0.27928
-0.230118
-0.189498
-0.155633
-0.124989
-0.520273
-0.493681
-0.444235
-0.379056
-0.313958
-0.2566
-0.208544
-0.169167
-0.136238
-0.107056
-0.496412
-0.469969
-0.418927
-0.353031
-0.288401
-0.232186
-0.185574
-0.147651
-0.115928
-0.088377
-0.468724
-0.442601
-0.390429
-0.324417
-0.260727
-0.206109
-0.161253
-0.125033
-0.0947701
-0.0690058
-0.437306
-0.41171
-0.358932
-0.293314
-0.23104
-0.178449
-0.135674
-0.101401
-0.0728304
-0.0490457
-0.402317
-0.377495
-0.324562
-0.259688
-0.199603
-0.149349
-0.108943
-0.076847
-0.050188
-0.0286113
-0.363976
-0.340221
-0.287181
-0.224029
-0.166493
-0.118947
-0.0811821
-0.0514717
-0.0269237
-0.00778578
-0.322508
-0.300132
-0.247011
-0.186559
-0.131919
-0.0873989
-0.0525271
-0.0253811
-0.0031277
0.0133292
-0.278114
-0.257081
-0.205039
-0.147428
-0.0960767
-0.0548693
-0.0231071
0.00132661
0.0210401
0.0343296
-0.231117
-0.211637
-0.161486
-0.10691
-0.0591679
-0.0215225
0.00697365
0.0285802
0.0452857
0.0543044
-0.182096
-0.164107
-0.116465
-0.0652771
-0.021415
0.0124744
0.0376228
0.0563056
0.0693249
0.072763
-0.131275
-0.114976
-0.070235
-0.0228044
0.0169451
0.0469368
0.0686862
0.0842908
0.0931925
0.0918981
-0.0790492
-0.0646764
-0.0231304
0.0202238
0.0556678
0.0816538
0.0999032
0.112122
0.116915
0.116835
-0.0258577
-0.0136101
0.0244881
0.0635128
0.0945039
0.116397
0.130998
0.139634
0.141193
0.141853
0.0278583
0.0378191
0.0722537
0.106761
0.133198
0.150936
0.1618
0.166907
0.165718
0.165445
0.0816542
0.0892017
0.1198
0.149662
0.17149
0.185041
0.192133
0.193809
0.190035
0.188014
0.135085
0.140127
0.166765
0.191912
0.20912
0.218491
0.221829
0.220164
0.213801
0.209576
0.187707
0.190186
0.212791
0.233211
0.245834
0.25107
0.250711
0.245791
0.236834
0.230201
0.239088
0.238979
0.25753
0.273263
0.281381
0.282568
0.278599
0.270517
0.258987
0.249864
0.288803
0.286116
0.300646
0.311785
0.315521
0.312779
0.305317
0.294182
0.280139
0.268516
0.336443
0.33122
0.341813
0.348502
0.34802
0.341506
0.330695
0.31664
0.300173
0.286087
0.381617
0.373935
0.380726
0.383154
0.378658
0.368561
0.354572
0.337753
0.318978
0.302502
0.423958
0.413923
0.417092
0.415496
0.407225
0.393764
0.376797
0.35739
0.336448
0.317686
0.463118
0.450868
0.450642
0.445298
0.433527
0.41695
0.397226
0.375431
0.352482
0.331565
0.49878
0.484482
0.481127
0.47235
0.457384
0.437967
0.41573
0.391764
0.366984
0.344073
0.530655
0.514501
0.508322
0.496462
0.478635
0.456675
0.432192
0.406288
0.37987
0.355149
0.558483
0.540691
0.532027
0.517463
0.497134
0.472952
0.446506
0.418912
0.391061
0.364738
0.582041
0.562847
0.552065
0.535206
0.512756
0.486691
0.458583
0.429558
0.400492
0.372797
0.601136
0.580797
0.56829
0.549566
0.525395
0.497803
0.468345
0.43816
0.408107
0.379286
0.615612
0.5944
0.58058
0.56044
0.534964
0.506212
0.475731
0.444667
0.41386
0.384172
0.625353
0.603549
0.588844
0.56775
0.541396
0.511864
0.480694
0.449037
0.417723
0.38745
0.630276
0.608171
0.593018
0.571442
0.544644
0.514719
0.4832
0.451245
0.419682
0.389133
0.63034
0.608229
0.59307
0.571488
0.544684
0.514752
0.483228
0.451269
0.419705
0.389166
0.625542
0.603719
0.588997
0.567885
0.541512
0.511961
0.480772
0.449098
0.417771
0.387489
0.615918
0.594674
0.580827
0.560655
0.535146
0.506361
0.475846
0.44475
0.413915
0.384201
0.601544
0.581164
0.568619
0.54985
0.525632
0.497991
0.468485
0.438256
0.408162
0.379303
0.582536
0.563292
0.552462
0.535545
0.513034
0.486906
0.458737
0.429656
0.400542
0.372804
0.559047
0.541197
0.532476
0.517843
0.497439
0.473183
0.446666
0.419008
0.391104
0.364736
0.531267
0.515052
0.508809
0.496868
0.478956
0.456913
0.432352
0.406381
0.379907
0.35514
0.499421
0.48506
0.481636
0.472771
0.457712
0.438206
0.415888
0.391853
0.367019
0.344061
0.463769
0.451458
0.45116
0.445723
0.433855
0.417186
0.39738
0.375518
0.352515
0.331552
0.424603
0.41451
0.417607
0.415917
0.407547
0.393994
0.376947
0.357476
0.336483
0.317673
0.382243
0.374507
0.381229
0.383564
0.378971
0.368785
0.35472
0.337839
0.319015
0.302492
0.337036
0.331767
0.342297
0.348896
0.348322
0.341723
0.33084
0.316728
0.300213
0.286079
0.289356
0.286629
0.301103
0.31216
0.315809
0.312989
0.30546
0.294273
0.280184
0.26851
0.239594
0.239454
0.257957
0.273616
0.281655
0.28277
0.278741
0.270611
0.259038
0.24986
0.188163
0.190619
0.213184
0.23354
0.246093
0.251265
0.250852
0.24589
0.236891
0.230197
0.135487
0.140514
0.167123
0.192217
0.209365
0.21868
0.22197
0.220267
0.213866
0.209573
0.0820036
0.0895432
0.120123
0.149942
0.17172
0.185223
0.192274
0.193918
0.190114
0.188014
0.0281553
0.0381151
0.0725408
0.107016
0.133414
0.151113
0.161941
0.167021
0.165817
0.165463
-0.025611
-0.0133582
0.0247403
0.0637444
0.0947061
0.116569
0.131139
0.139753
0.14132
0.141925
-0.0788499
-0.0644667
-0.0229117
0.0204322
0.0558565
0.0818209
0.100046
0.112244
0.117067
0.117034
-0.131119
-0.114806
-0.0700481
-0.0226183
0.0171206
0.0470991
0.0688327
0.0844209
0.0933642
0.0922557
-0.181981
-0.163973
-0.116308
-0.0651124
-0.0212526
0.012631
0.0377719
0.0564444
0.0694935
0.0730801
-0.23104
-0.211537
-0.161358
-0.106766
-0.0590188
-0.0213735
0.00712072
0.0287198
0.0454352
0.05453
-0.278067
-0.257012
-0.204938
-0.147304
-0.0959413
-0.0547296
-0.0229667
0.0014605
0.0211722
0.0344981
-0.322489
-0.300089
-0.246934
-0.186453
-0.131798
-0.0872696
-0.0523956
-0.0252552
-0.00300712
0.0134705
-0.363981
-0.340202
-0.287126
-0.223941
-0.166384
-0.118828
-0.08106
-0.0513537
-0.0268117
-0.00766154
-0.402342
-0.377497
-0.324525
-0.259618
-0.199508
-0.149241
-0.10883
-0.0767368
-0.0500837
-0.0285009
-0.437349
-0.41173
-0.358913
-0.293259
-0.230956
-0.178352
-0.13557
-0.101298
-0.0727334
-0.0489462
-0.468781
-0.442636
-0.390425
-0.324375
-0.260656
-0.206022
-0.161159
-0.124938
-0.0946797
-0.0689142
-0.496481
-0.470016
-0.418937
-0.353001
-0.288341
-0.232108
-0.185487
-0.147563
-0.115844
-0.0882914
-0.52035
-0.493738
-0.444257
-0.379038
-0.313908
-0.256531
-0.208465
-0.169086
-0.136159
-0.106975
-0.540345
-0.513733
-0.46625
-0.402355
-0.337287
-0.279219
-0.230046
-0.189423
-0.155558
-0.124913
-0.556477
-0.529993
-0.484853
-0.422863
-0.358407
-0.300081
-0.250193
-0.208566
-0.173924
-0.142156
-0.568815
-0.542571
-0.500058
-0.44051
-0.377214
-0.319065
-0.268813
-0.22649
-0.191088
-0.158956
-0.577482
-0.551577
-0.511905
-0.455284
-0.393682
-0.33615
-0.285877
-0.243153
-0.207268
-0.175254
-0.58266
-0.557176
-0.520484
-0.467204
-0.407808
-0.351334
-0.301385
-0.258546
-0.222376
-0.190271
-0.584575
-0.559591
-0.52593
-0.476326
-0.419614
-0.364631
-0.315349
-0.272657
-0.236345
-0.204031
-0.583503
-0.559095
-0.528429
-0.482742
-0.429147
-0.376072
-0.327788
-0.285496
-0.249225
-0.216793
-0.579752
-0.556
-0.528212
-0.486586
-0.436478
-0.385704
-0.338739
-0.297104
-0.261085
-0.228732
-0.573662
-0.550648
-0.525558
-0.488027
-0.441703
-0.393591
-0.348259
-0.307531
-0.271977
-0.239911
-0.565588
-0.543399
-0.520779
-0.487269
-0.444942
-0.399812
-0.356412
-0.316836
-0.281939
-0.250351
-0.555896
-0.534616
-0.51422
-0.48455
-0.446335
-0.404459
-0.363269
-0.325078
-0.291013
-0.260077
-0.544948
-0.524662
-0.506237
-0.480138
-0.446044
-0.407631
-0.368904
-0.332322
-0.299253
-0.269124
-0.533093
-0.51388
-0.49719
-0.474321
-0.44425
-0.40944
-0.373396
-0.338635
-0.306718
-0.277534
-0.520661
-0.502593
-0.487425
-0.467403
-0.441152
-0.410004
-0.376826
-0.344085
-0.31347
-0.285355
-0.50795
-0.49109
-0.477262
-0.459695
-0.436966
-0.40945
-0.379275
-0.348739
-0.319573
-0.29264
-0.495223
-0.479622
-0.466981
-0.4515
-0.431917
-0.407914
-0.380825
-0.352661
-0.325089
-0.299446
-0.482703
-0.468403
-0.456821
-0.443096
-0.426242
-0.405539
-0.381557
-0.355908
-0.330076
-0.305833
-0.470573
-0.457599
-0.446974
-0.434728
-0.420174
-0.402476
-0.381551
-0.358534
-0.334587
-0.311861
-0.458976
-0.447336
-0.437588
-0.426588
-0.413935
-0.398884
-0.380893
-0.360584
-0.338666
-0.317588
-0.448016
-0.437701
-0.428768
-0.418823
-0.407721
-0.394927
-0.379669
-0.362103
-0.342349
-0.323074
-0.437768
-0.428745
-0.420579
-0.41153
-0.401692
-0.390769
-0.377978
-0.363132
-0.345662
-0.328377
-0.42828
-0.420495
-0.413052
-0.404768
-0.39596
-0.386562
-0.375929
-0.363719
-0.419584
-0.412959
-0.406194
-0.398569
-0.3906
-0.382439
-0.37364
-0.363924
-0.411702
-0.406133
-0.399996
-0.392943
-0.385656
-0.378504
-0.371239
-0.404651
-0.400012
-0.394445
-0.387893
-0.381166
-0.374839
-0.398443
-0.394588
-0.389528
-0.38342
-0.377165
-0.393083
-0.389849
-0.385237
-0.379532
-0.388557
-0.385778
-0.381559
-0.376237
-0.384819
-0.382341
-0.378475
-0.38179
-0.379488
-0.379374
-0.377128
-0.377433
-0.3758
-0.226785
-0.236334
-0.245379
-0.253951
-0.262086
-0.269823
-0.277204
-0.284273
-0.291074
-0.297649
-0.304044
-0.208911
-0.217965
-0.226636
-0.234956
-0.24296
-0.250688
-0.258178
-0.265471
-0.272612
-0.27965
-0.286642
-0.192683
-0.201197
-0.209426
-0.217401
-0.225158
-0.232732
-0.240162
-0.247488
-0.254754
-0.262013
-0.269317
-0.178017
-0.186006
-0.193793
-0.201405
-0.20887
-0.21622
-0.223486
-0.230702
-0.237902
-0.245126
-0.252396
-0.164747
-0.172229
-0.179566
-0.186781
-0.193896
-0.200935
-0.207923
-0.214884
-0.22184
-0.228817
-0.23582
-0.152668
-0.159646
-0.166518
-0.173303
-0.180018
-0.186682
-0.193313
-0.199932
-0.206554
-0.213206
-0.219899
-0.141603
-0.148087
-0.154491
-0.160832
-0.167125
-0.173386
-0.179628
-0.185873
-0.192134
-0.198438
-0.204797
-0.131438
-0.13744
-0.143382
-0.14928
-0.155147
-0.160995
-0.166836
-0.172688
-0.178563
-0.184478
-0.190442
-0.122073
-0.127608
-0.133102
-0.138566
-0.144009
-0.149441
-0.154875
-0.16032
-0.165789
-0.171293
-0.176841
-0.11339
-0.118488
-0.123555
-0.128601
-0.133632
-0.138657
-0.143686
-0.148729
-0.153794
-0.158893
-0.164036
-0.105317
-0.110014
-0.114679
-0.119324
-0.12396
-0.128593
-0.133231
-0.137883
-0.142556
-0.147261
-0.152005
-0.0978318
-0.10214
-0.106421
-0.110687
-0.114945
-0.119203
-0.123466
-0.127742
-0.132037
-0.136358
-0.140714
-0.0908812
-0.0948185
-0.0987359
-0.102642
-0.106543
-0.110444
-0.114351
-0.118268
-0.122201
-0.126158
-0.130144
-0.0843955
-0.0879893
-0.0915683
-0.0951387
-0.0987052
-0.102272
-0.105842
-0.109422
-0.113016
-0.116629
-0.120267
-0.078341
-0.0816176
-0.0848828
-0.088141
-0.0913955
-0.0946496
-0.0979069
-0.101171
-0.104447
-0.107738
-0.111049
-0.072676
-0.0756628
-0.0786397
-0.0816096
-0.0845754
-0.0875399
-0.0905065
-0.0934781
-0.0964582
-0.0994503
-0.102458
-0.0673796
-0.0701024
-0.0728141
-0.0755176
-0.0782163
-0.0809133
-0.083611
-0.0863119
-0.0890188
-0.0917344
-0.094462
-0.062436
-0.0649122
-0.0673782
-0.0698363
-0.0722896
-0.0747403
-0.0771904
-0.079642
-0.0820973
-0.0845586
-0.0870284
-0.0578182
-0.060067
-0.0623071
-0.0645401
-0.066768
-0.0689927
-0.0712157
-0.0734386
-0.0756632
-0.0778914
-0.0801253
-0.0535003
-0.0555425
-0.0575768
-0.0596043
-0.0616265
-0.0636446
-0.06566
-0.067674
-0.0696879
-0.0717033
-0.0737218
-0.0494668
-0.0513213
-0.053168
-0.0550081
-0.0568426
-0.0586724
-0.0604986
-0.0623221
-0.0641441
-0.0659658
-0.0677884
-0.0457021
-0.0473857
-0.0490619
-0.0507314
-0.0523951
-0.0540536
-0.0557077
-0.0573581
-0.0590058
-0.0606516
-0.0622966
-0.0639417
-0.0421917
-0.0437203
-0.0452415
-0.0467561
-0.0482646
-0.0497676
-0.0512655
-0.052759
-0.0542486
-0.0557351
-0.0572193
-0.0587019
-0.0389223
-0.0403104
-0.0416911
-0.0430653
-0.0444332
-0.0457953
-0.0471517
-0.048503
-0.0498497
-0.0511922
-0.0525311
-0.0538671
-0.0358793
-0.0371405
-0.0383947
-0.0396422
-0.0408833
-0.042118
-0.0433467
-0.0445697
-0.0457873
-0.0469999
-0.048208
-0.0494119
-0.0330555
-0.0342017
-0.0353416
-0.0364745
-0.0376005
-0.03872
-0.0398333
-0.0409404
-0.0420416
-0.0431372
-0.0442275
-0.0453127
-0.0304397
-0.0314823
-0.0325183
-0.0335476
-0.03457
-0.0355857
-0.036595
-0.0375978
-0.0385942
-0.0395846
-0.040569
-0.0415476
-0.0280221
-0.028971
-0.0299135
-0.0308493
-0.0317783
-0.0327006
-0.0336163
-0.0345252
-0.0354276
-0.0363234
-0.0372129
-0.0380961
-0.0257924
-0.0266572
-0.0275157
-0.0283676
-0.0292127
-0.0300512
-0.0308828
-0.0317076
-0.0325256
-0.0333368
-0.0341413
-0.0349391
-0.023743
-0.0245325
-0.0253156
-0.0260923
-0.0268622
-0.0276254
-0.0283818
-0.0291313
-0.0298738
-0.0306093
-0.0313379
-0.0320596
-0.0218667
-0.0225887
-0.0233044
-0.0240136
-0.0247163
-0.0254123
-0.0261014
-0.0267836
-0.0274587
-0.0281268
-0.0287878
-0.0294417
-0.0201568
-0.0208184
-0.0214739
-0.0221231
-0.0227658
-0.0234018
-0.024031
-0.0246533
-0.0252686
-0.0258767
-0.0264777
-0.0270714
-0.0186072
-0.0192153
-0.0198173
-0.0204131
-0.0210025
-0.0215853
-0.0221614
-0.0227306
-0.0232927
-0.0238478
-0.0243957
-0.0249363
-0.0172132
-0.0177738
-0.0183285
-0.0188771
-0.0194194
-0.0199552
-0.0204844
-0.0210067
-0.0215221
-0.0220305
-0.0225317
-0.0230256
-0.0159704
-0.0164893
-0.0170025
-0.0175097
-0.0180106
-0.0185052
-0.0189933
-0.0194747
-0.0199492
-0.0204167
-0.0208771
-0.0213303
-0.0148759
-0.0153585
-0.0158356
-0.0163067
-0.0167718
-0.0172306
-0.017683
-0.0181288
-0.0185679
-0.0190001
-0.0194253
-0.0198433
-0.0139278
-0.0143793
-0.0148253
-0.0152656
-0.0156999
-0.016128
-0.0165499
-0.0169653
-0.0173741
-0.0177761
-0.0181712
-0.0185594
-0.0131259
-0.0135512
-0.0139711
-0.0143854
-0.0147938
-0.0151963
-0.0155925
-0.0159825
-0.0163659
-0.0167427
-0.0171128
-0.0174761
-0.012471
-0.0128748
-0.0132734
-0.0136665
-0.0140538
-0.0144353
-0.0148107
-0.01518
-0.0155429
-0.0158994
-0.0162492
-0.0165924
-0.0119683
-0.0123555
-0.0127375
-0.013114
-0.0134849
-0.0138501
-0.0142094
-0.0145627
-0.0149098
-0.0152506
-0.015585
-0.0159128
-0.0116198
-0.0119952
-0.0123655
-0.0127304
-0.01309
-0.0134439
-0.0137921
-0.0141344
-0.0144707
-0.0148009
-0.0151249
-0.0154425
-0.0114438
-0.0118117
-0.0121745
-0.0125321
-0.0128843
-0.0132311
-0.0135722
-0.0139077
-0.0142374
-0.0145613
-0.0148791
-0.0151909
0.0841372
0.064795
0.0471101
0.0296198
0.0110103
-0.00792278
-0.026453
-0.0445168
-0.0621653
-0.0793392
-0.0959615
-0.112004
-0.127459
-0.142293
-0.156448
-0.170125
-0.182908
-0.194825
-0.206055
-0.216699
0.0752805
0.0565612
0.0376351
0.020873
0.00404208
-0.0131911
-0.0300201
-0.0461996
-0.0618761
-0.077107
-0.0918444
-0.106047
-0.119671
-0.132638
-0.144796
-0.156809
-0.168331
-0.179224
-0.189567
-0.199451
0.0646861
0.047185
0.0286041
0.0129228
-0.00184144
-0.0169598
-0.0319284
-0.046295
-0.0601305
-0.0735618
-0.0865775
-0.0991214
-0.111154
-0.122658
-0.133665
-0.144525
-0.15506
-0.165105
-0.174678
-0.183854
0.0536914
0.037793
0.0205526
0.00617931
-0.00680502
-0.0200136
-0.0332915
-0.0461103
-0.0584061
-0.0703152
-0.0818812
-0.093073
-0.103873
-0.114283
-0.124299
-0.133813
-0.143271
-0.15247
-0.1613
-0.169795
0.0435244
0.0293153
0.0137366
0.000710013
-0.0107982
-0.0223812
-0.0341344
-0.0455726
-0.056534
-0.0671227
-0.0774152
-0.0874025
-0.0970601
-0.106379
-0.115362
-0.124034
-0.132683
-0.141109
-0.149235
-0.157096
0.0345455
0.0218728
0.00797108
-0.00374607
-0.0140027
-0.0242162
-0.0346171
-0.0448141
-0.0546048
-0.0640498
-0.0732346
-0.0821718
-0.0908422
-0.0992332
-0.10735
-0.11522
-0.123118
-0.130822
-0.138291
-0.14556
0.0267226
0.0153948
0.00308323
-0.00738042
-0.0165381
-0.0255861
-0.0348
-0.0438846
-0.052639
-0.0610882
-0.0693115
-0.0773388
-0.0851655
-0.092794
-0.100234
-0.10749
-0.114444
-0.121404
-0.128282
-0.135012
0.0199558
0.00981683
-0.00103288
-0.0103243
-0.0185022
-0.0265489
-0.0347292
-0.042825
-0.0506587
-0.0582327
-0.065612
-0.0728305
-0.0798883
-0.086781
-0.0935072
-0.100066
-0.106457
-0.112838
-0.119153
-0.125351
0.0141524
0.00507696
-0.00445638
-0.0126784
-0.0199816
-0.0271601
-0.0344414
-0.0416632
-0.0486781
-0.055477
-0.06211
-0.0686086
-0.0749769
-0.0812128
-0.0873192
-0.0933063
-0.0991805
-0.10503
-0.110803
-0.116479
0.00922121
0.00109925
-0.00726486
-0.0145284
-0.0210525
-0.0274723
-0.0339696
-0.0404208
-0.0467081
-0.0528192
-0.0587916
-0.0646523
-0.0704063
-0.0760509
-0.0815835
-0.0870126
-0.092375
-0.0977602
-0.103056
-0.108253
0.00506909
-0.00219963
-0.00953416
-0.0159475
-0.0217788
-0.0275312
-0.0333416
-0.0391131
-0.0447539
-0.0502528
-0.0556381
-0.0609328
-0.0661445
-0.0712752
-0.0763305
-0.0813125
-0.0862022
-0.0909877
-0.0957846
-0.100574
0.00160626
-0.00490041
-0.0113337
-0.0169972
-0.0222125
-0.027375
-0.0325807
-0.0377514
-0.0428171
-0.0477693
-0.0526293
-0.0574152
-0.0621332
-0.0667838
-0.0713675
-0.0758834
-0.0803308
-0.0847142
-0.0891037
-0.093485
-0.00125068
-0.00707695
-0.0127246
-0.0177293
-0.022397
-0.0270356
-0.0317067
-0.0363452
-0.0408983
-0.0453607
-0.0497487
-0.0540761
-0.0583475
-0.062564
-0.0667268
-0.070838
-0.0749012
-0.0789158
-0.0829236
-0.086916
-0.00357734
-0.0087963
-0.0137606
-0.0181878
-0.0223683
-0.0265403
-0.030737
-0.0349028
-0.0389986
-0.043022
-0.0469859
-0.0509004
-0.0547693
-0.0585937
-0.062375
-0.0661154
-0.0698175
-0.0734834
-0.0771411
-0.0807803
-0.00544154
-0.0101185
-0.0144888
-0.0184105
-0.0221576
-0.0259128
-0.0296874
-0.0334328
-0.0371201
-0.0407498
-0.0443321
-0.0478743
-0.0513792
-0.0548475
-0.0582803
-0.0616795
-0.0650481
-0.0683903
-0.0717291
-0.0750468
-0.00690383
-0.011097
-0.0149513
-0.0184306
-0.0217918
-0.0251742
-0.0285725
-0.0319432
-0.0352655
-0.0385419
-0.0417809
-0.0449877
-0.0481639
-0.0513099
-0.0544262
-0.0575136
-0.0605734
-0.063609
-0.0666538
-0.0696753
-0.00801801
-0.0117793
-0.015185
-0.0182771
-0.0212948
-0.0243433
-0.0274053
-0.0304416
-0.0334374
-0.0363967
-0.0393267
-0.0422311
-0.0451112
-0.0479676
-0.0508017
-0.0536156
-0.0564105
-0.0591852
-0.0619141
-0.0646471
-0.00883193
-0.0122073
-0.015223
-0.0179761
-0.0206878
-0.0234369
-0.0261978
-0.0289351
-0.0316384
-0.0343124
-0.0369634
-0.039594
-0.0422045
-0.044795
-0.0473662
-0.0499188
-0.0524529
-0.0549678
-0.0574607
-0.0599504
-0.00938813
-0.0124186
-0.0150947
-0.0175508
-0.0199898
-0.0224703
-0.0249614
-0.0274312
-0.0298719
-0.0322892
-0.0346884
-0.0370711
-0.0394371
-0.0417863
-0.0441191
-0.0464362
-0.048738
-0.0510249
-0.0532959
-0.0555605
-0.00972461
-0.0124466
-0.0148269
-0.0170225
-0.0192186
-0.0214579
-0.0237072
-0.0259372
-0.0281426
-0.030329
-0.0325011
-0.0346599
-0.036805
-0.0389359
-0.041053
-0.0431568
-0.0452476
-0.0473259
-0.0493914
-0.0514496
-0.00987535
-0.0123214
-0.0144436
-0.0164108
-0.0183903
-0.0204133
-0.0224457
-0.024461
-0.0264552
-0.028434
-0.0304015
-0.0323583
-0.0343036
-0.0362371
-0.0381588
-0.040069
-0.0419681
-0.0438564
-0.0457339
-0.0476042
-0.00987079
-0.0120698
-0.0139667
-0.0157334
-0.01752
-0.0193489
-0.0211867
-0.0230095
-0.0248144
-0.0266067
-0.0283899
-0.0301644
-0.0319294
-0.0336843
-0.0354291
-0.0371639
-0.0388891
-0.0406048
-0.0423111
-0.0440104
-0.0097382
-0.0117161
-0.013416
-0.0150065
-0.0166212
-0.0182761
-0.0199395
-0.0215898
-0.0232248
-0.0248495
-0.0264668
-0.028077
-0.0296792
-0.0312727
-0.0328575
-0.0344336
-0.0360011
-0.0375602
-0.039111
-0.0406552
-0.009502
-0.011282
-0.0128095
-0.014245
-0.0157066
-0.0172056
-0.0187125
-0.0202082
-0.0216909
-0.023165
-0.0246331
-0.0260953
-0.0275506
-0.0289983
-0.0304383
-0.0318706
-0.0332952
-0.0347122
-0.0361218
-0.037526
-0.00918396
-0.0107869
-0.0121632
-0.0134623
-0.0147875
-0.0161468
-0.0175136
-0.0188708
-0.020217
-0.0215559
-0.0228898
-0.0242188
-0.0255418
-0.0268581
-0.0281676
-0.0294699
-0.030765
-0.0320527
-0.0333332
-0.0346104
-0.00880341
-0.0102479
-0.0114915
-0.0126703
-0.013874
-0.0151085
-0.0163497
-0.0175829
-0.0188066
-0.0200243
-0.0212378
-0.0224471
-0.0236513
-0.0248497
-0.0260421
-0.0272284
-0.0284086
-0.0295825
-0.0307493
-0.0319045
-0.00837745
-0.00968035
-0.0108072
-0.0118798
-0.0129754
-0.014098
-0.0152268
-0.0163488
-0.0174629
-0.0185718
-0.019677
-0.0207785
-0.0218754
-0.0229671
-0.0240532
-0.0251336
-0.026208
-0.0272761
-0.0283375
-0.0293914
-0.0079211
-0.00909748
-0.0101214
-0.0111002
-0.0120994
-0.0131222
-0.0141503
-0.0151729
-0.0161887
-0.0172
-0.018208
-0.0192127
-0.0202132
-0.0212089
-0.0221995
-0.0231848
-0.0241645
-0.0251383
-0.026106
-0.027067
-0.00744753
-0.00851103
-0.00944423
-0.0103399
-0.0112534
-0.0121869
-0.0131252
-0.0140588
-0.0149866
-0.0159105
-0.0168314
-0.0177492
-0.0186632
-0.0195729
-0.0204777
-0.0213776
-0.0222721
-0.0231612
-0.0240443
-0.0249213
-0.00696818
-0.00793115
-0.00878421
-0.00960632
-0.0104435
-0.0112975
-0.0121555
-0.0130096
-0.0138588
-0.0147045
-0.0155475
-0.0163875
-0.0172241
-0.0180565
-0.0188844
-0.0197077
-0.0205259
-0.0213388
-0.0221461
-0.0229475
-0.00649293
-0.00736656
-0.00814883
-0.00890573
-0.00967507
-0.0104582
-0.0112447
-0.012028
-0.0128071
-0.013583
-0.0143563
-0.0151269
-0.0158941
-0.0166575
-0.0174166
-0.0181712
-0.018921
-0.0196658
-0.0204051
-0.0211388
-0.00603023
-0.00682471
-0.00754446
-0.00824362
-0.00895278
-0.00967307
-0.010396
-0.0111163
-0.0118329
-0.0125466
-0.0132579
-0.0139665
-0.0146719
-0.0153737
-0.0160714
-0.0167648
-0.0174536
-0.0181374
-0.0188161
-0.0194892
-0.00558727
-0.00631191
-0.00697656
-0.00762467
-0.00828058
-0.00894522
-0.0096119
-0.0102763
-0.0109375
-0.011596
-0.0122522
-0.0129058
-0.0135563
-0.0142033
-0.0148464
-0.0154853
-0.0161198
-0.0167495
-0.0173741
-0.0179934
-0.00517013
-0.0058335
-0.00644976
-0.0070529
-0.00766189
-0.00827753
-0.00889461
-0.00950968
-0.010122
-0.0107318
-0.0113393
-0.0119442
-0.0125462
-0.0131447
-0.0137395
-0.0143302
-0.0149166
-0.0154984
-0.0160752
-0.0166469
-0.00478398
-0.00539403
-0.00596805
-0.00653182
-0.00709976
-0.00767254
-0.00824622
-0.0088181
-0.00938752
-0.0099546
-0.0105194
-0.0110816
-0.0116409
-0.0121968
-0.0127491
-0.0132975
-0.0138417
-0.0143813
-0.0149161
-0.0154459
-0.00443323
-0.00499741
-0.00553492
-0.00606456
-0.00659694
-0.00713262
-0.00766871
-0.00820315
-0.00873533
-0.00926526
-0.0097929
-0.010318
-0.0108402
-0.0113591
-0.0118744
-0.0123859
-0.0128933
-0.0133962
-0.0138945
-0.0143877
-0.00412174
-0.00464711
-0.00515356
-0.00565408
-0.00615614
-0.00666019
-0.0071642
-0.00766663
-0.00816696
-0.00866508
-0.00916089
-0.00965413
-0.0101445
-0.0106316
-0.0111152
-0.011595
-0.0120707
-0.0125421
-0.0130089
-0.0134709
-0.00385302
-0.00434637
-0.00482706
-0.00530333
-0.00578014
-0.00625786
-0.00673512
-0.0072108
-0.00768446
-0.00815592
-0.00862503
-0.00909152
-0.00955511
-0.0100155
-0.0104724
-0.0109255
-0.0113746
-0.0118195
-0.0122598
-0.0126953
-0.00363041
-0.00409841
-0.0045586
-0.00501548
-0.00547206
-0.00592864
-0.00638436
-0.00683846
-0.00729052
-0.00774035
-0.00818774
-0.00863245
-0.0090742
-0.00951273
-0.00994777
-0.0103791
-0.0108064
-0.0112294
-0.011648
-0.012062
-0.00345737
-0.00390673
-0.00435178
-0.00479426
-0.00523573
-0.00567646
-0.00611596
-0.00655372
-0.00698938
-0.0074227
-0.00785348
-0.00828148
-0.00870645
-0.00912813
-0.00954628
-0.00996068
-0.0103711
-0.0107772
-0.011179
-0.0115761
-0.00333758
-0.00377517
-0.00421056
-0.00464367
-0.00507514
-0.00550519
-0.00593363
-0.00636011
-0.00678434
-0.00720609
-0.00762513
-0.00804126
-0.00845426
-0.0088639
-0.00926997
-0.00967226
-0.0100705
-0.0104646
-0.0108543
-0.0112395
-0.00327529
-0.00370863
-0.00414089
-0.00457097
-0.0049989
-0.00542486
-0.00584877
-0.0062704
-0.00668946
-0.00710572
-0.00751897
-0.007929
-0.00833563
-0.00873866
-0.00913789
-0.00953315
-0.00992425
-0.010311
-0.0106933
-0.0110709
0.103775
0.105128
0.1076
0.111114
0.115457
0.120614
0.126381
0.132741
0.139429
0.146402
0.153269
0.159944
0.165818
0.170785
0.173885
0.175116
0.172865
0.167566
0.156061
0.139843
0.110709
0.102813
0.104103
0.106453
0.109783
0.113875
0.1187
0.124042
0.129865
0.135888
0.142044
0.147924
0.153416
0.157903
0.161252
0.162534
0.161692
0.157289
0.149524
0.136183
0.118156
0.0942257
0.101759
0.102978
0.10519
0.108312
0.112125
0.116581
0.121458
0.126701
0.132016
0.137319
0.142188
0.146499
0.149643
0.151481
0.151156
0.148594
0.14264
0.133427
0.119775
0.102386
0.081578
0.100606
0.101748
0.103812
0.106713
0.110227
0.114296
0.118687
0.12333
0.127923
0.132362
0.13623
0.139384
0.141256
0.141688
0.139955
0.135946
0.128869
0.118773
0.105214
0.0884919
0.0691567
0.0993522
0.100412
0.10232
0.104988
0.108193
0.111859
0.115752
0.119783
0.123653
0.127235
0.130133
0.13218
0.132875
0.132035
0.129097
0.123913
0.116017
0.105381
0.0919375
0.0758066
0.0576072
0.0979942
0.0989676
0.100713
0.103137
0.106021
0.109272
0.11266
0.116074
0.119226
0.121967
0.123936
0.124942
0.124566
0.122606
0.118657
0.112557
0.104073
0.0931555
0.0799128
0.0644781
0.0474543
0.0965296
0.0974123
0.0989894
0.10116
0.103713
0.106541
0.109418
0.112215
0.114663
0.11659
0.117678
0.117722
0.116386
0.113463
0.108684
0.101898
0.0930272
0.0820424
0.0691462
0.0545075
0.0386584
0.0949565
0.0957448
0.0971478
0.0990579
0.101275
0.103673
0.106039
0.108227
0.109989
0.111139
0.111405
0.110575
0.108393
0.104661
0.0992207
0.0919493
0.0828698
0.0719916
0.0595644
0.0457577
0.0310295
0.0932738
0.0939646
0.0951892
0.0968337
0.0987092
0.100677
0.102538
0.10413
0.105233
0.105652
0.10516
0.103551
0.100637
0.0962463
0.0903002
0.0827154
0.0735812
0.0629396
0.051059
0.038087
0.0244219
0.091481
0.0920719
0.0931151
0.094491
0.0960241
0.0975649
0.0989297
0.0999474
0.100424
0.100165
0.0989854
0.0966947
0.0931636
0.0882517
0.0819421
0.07419
0.0651269
0.0548157
0.0435281
0.0313832
0.0187294
0.0895785
0.090068
0.0909281
0.0920349
0.0932275
0.0943489
0.095232
0.0957021
0.0955913
0.0947129
0.0929201
0.0900452
0.0860072
0.0807008
0.0741543
0.0663562
0.0574638
0.0475508
0.036883
0.0255511
0.0138577
0.0875676
0.0879552
0.0886318
0.0894717
0.0903287
0.0910427
0.0914632
0.091418
0.0907639
0.0893284
0.0869987
0.0836348
0.0791948
0.0736077
0.0669345
0.0591905
0.050546
0.0410791
0.0310431
0.0205023
0.00971646
0.0854508
0.0857371
0.0862314
0.0868091
0.0873386
0.0876612
0.0876427
0.0871189
0.0859695
0.0840414
0.0812518
0.0774899
0.0727455
0.0669786
0.0602731
0.0526639
0.044326
0.0353367
0.0259323
0.0161538
0.00622169
0.0832316
0.0834181
0.0837329
0.0840558
0.0842691
0.08422
0.0837902
0.082828
0.0812346
0.0788792
0.0757053
0.0716311
0.0666715
0.0608128
0.0541542
0.0467441
0.0387554
0.0302616
0.0214793
0.0124293
0.00329699
0.0809144
0.081004
0.0811438
0.0812216
0.0811331
0.0807355
0.0799255
0.0785678
0.0765835
0.0738655
0.0703805
0.0660731
0.0609784
0.0551038
0.0485573
0.041396
0.0337858
0.0257944
0.0176175
0.00925903
0.000873616
0.0785053
0.0785016
0.0784727
0.0783175
0.0779446
0.0772242
0.0760683
0.0743597
0.0720383
0.0690208
0.0652938
0.0608257
0.0556664
0.0498401
0.0434584
0.0365829
0.0293694
0.0218788
0.0142854
0.00657987
-0.00111012
0.0760112
0.075919
0.0757294
0.0753551
0.0747178
0.0737031
0.0722374
0.0702236
0.0676186
0.0643622
0.0604576
0.0558937
0.0507311
0.0450065
0.0388309
0.0322675
0.0254599
0.0184616
0.0114266
0.00433459
-0.0027095
0.0734404
0.0732654
0.0729247
0.0723472
0.0714677
0.0701886
0.068451
0.0661776
0.0633414
0.0599029
0.0558798
0.0512776
0.0461641
0.0405845
0.0346465
0.0284124
0.0220126
0.0154932
0.00898902
0.00247146
-0.00397399
0.0708023
0.0705507
0.0700702
0.0693071
0.0682094
0.0666973
0.0647262
0.062238
0.0592207
0.0556532
0.0515648
0.0469743
0.0419538
0.0365536
0.0308761
0.0249809
0.0189851
0.0129276
0.00692524
0.000943698
-0.00494793
0.0681076
0.0677864
0.0671786
0.0662484
0.064958
0.0632448
0.0610784
0.0584192
0.055268
0.05162
0.0475134
0.0429776
0.038086
0.0328916
0.0274903