/*--------------------------------*- C++ -*----------------------------------*\
  =========                 |
  \\      /  F ield         | OpenFOAM: The Open Source CFD Toolbox
   \\    /   O peration     | Website:  https://openfoam.org
    \\  /    A nd           | Version:  7
     \\/     M anipulation  |
\*---------------------------------------------------------------------------*/
FoamFile
{
    version     2.0;
    format      ascii;
    class       surfaceScalarField;
    location    "10";
    object      phi;
}
// * * * * * * * * * * * * * * * * * * * * * * * * * * * * * * * * * * * * * //

dimensions      [0 3 -1 0 0 0 0];

internalField   nonuniform List<scalar> 
32949
(
-1.90531e-05
1.90173e-05
3.58953e-08
-6.0327e-05
4.11952e-05
7.86687e-08
-0.000117614
5.71831e-05
1.03902e-07
-0.000187035
6.93039e-05
1.17173e-07
-0.000267056
7.98972e-05
1.24125e-07
-0.000357441
9.02563e-05
1.28085e-07
-0.000458822
0.000101251
1.30316e-07
-0.00057224
0.000113287
1.30511e-07
-0.000698966
0.000126599
1.2763e-07
-0.000840124
0.000141037
1.20242e-07
-0.00099735
0.000157119
1.06895e-07
-0.00117065
0.00017321
8.57602e-08
-0.00136444
0.000193738
5.56856e-08
0.000208122
1.46544e-08
-0.00157258
-1.87627e-05
3.77799e-05
-5.94816e-05
8.19142e-05
-0.000116
0.000113702
-0.000184424
0.000137728
-0.000263148
0.000158621
-0.00035183
0.000178938
-0.00045097
0.00020039
-0.000561442
0.00022376
-0.000684323
0.00024948
-0.000820452
0.000277166
-0.000971234
0.000307901
-0.00113593
0.000337907
-0.00131928
0.000377089
0.000401677
-0.00151284
-1.81909e-05
5.59708e-05
-5.78148e-05
0.000121538
-0.000112815
0.000168701
-0.000179267
0.000204181
-0.000255428
0.000234782
-0.000340752
0.000264262
-0.000435476
0.000295115
-0.000540155
0.000328439
-0.000655491
0.000364816
-0.000781774
0.000403449
-0.000920001
0.000446128
-0.00106796
0.000485865
-0.00123112
0.000540254
0.000567175
-0.00139662
-1.73565e-05
7.33273e-05
-5.53746e-05
0.000159556
-0.000108142
0.000221469
-0.000171696
0.000267734
-0.000244091
0.000307177
-0.000324488
0.000344659
-0.000412754
0.000383381
-0.000508983
0.000424668
-0.000613356
0.000469188
-0.000725386
0.00051548
-0.000845578
0.000566319
-0.000969536
0.000609823
-0.00110407
0.000674789
0.000693211
-0.00123011
-1.62863e-05
8.96136e-05
-5.22311e-05
0.000195501
-0.000102106
0.000271344
-0.0001619
0.000327528
-0.000229417
0.000374694
-0.000303451
0.000418693
-0.000383402
0.000463333
-0.000468797
0.000510063
-0.000559187
0.000559578
-0.000653121
0.000609414
-0.000750655
0.000663853
-0.000844552
0.00070372
-0.000943687
0.000773924
0.000771148
-0.00102162
-1.50147e-05
0.000104628
-4.84741e-05
0.00022896
-9.4865e-05
0.000317734
-0.000150124
0.000382788
-0.000211768
0.000436337
-0.000278164
0.000485089
-0.000348179
0.000533348
-0.00042069
0.000582574
-0.000494559
0.000633447
-0.000567235
0.00068209
-0.000638478
0.000735095
-0.000697687
0.000762929
-0.000756427
0.000832664
0.000795508
-0.000780787
-1.3582e-05
0.00011821
-4.42099e-05
0.000259588
-8.66079e-05
0.000360133
-0.000136661
0.000432841
-0.000191571
0.000491247
-0.000249244
0.000542763
-0.00030797
0.000592073
-0.000365927
0.000640532
-0.000421274
0.000688793
-0.000470279
0.000731094
-0.000512606
0.000777423
-0.000534083
0.000784406
-0.000548966
0.000847547
0.000764075
-0.000517532
-1.20331e-05
0.000130243
-3.95577e-05
0.000287113
-7.75472e-05
0.000398122
-0.000121838
0.000477132
-0.000169306
0.000538715
-0.000217379
0.000590836
-0.000263749
0.000638443
-0.000305886
0.000682669
-0.000341261
0.000724168
-0.000364962
0.000754795
-0.000376673
0.000789134
-0.000359062
0.000766796
-0.000327463
0.000815948
0.000678124
-0.000241513
-1.04158e-05
0.000140659
-3.46454e-05
0.000311343
-6.79121e-05
0.000431389
-0.000106008
0.000515228
-0.000145487
0.000578194
-0.000183299
0.000628648
-0.000216544
0.000671688
-0.000241996
0.000708121
-0.000256482
0.000738653
-0.000254016
0.000752329
-0.000234107
0.000769225
-0.000178092
0.000710782
-9.59384e-05
0.000733794
0.000545031
3.71545e-05
-8.77894e-06
0.000149438
-2.96054e-05
0.000332169
-5.79408e-05
0.000459724
-8.95403e-05
0.000546828
-0.000120647
0.0006093
-0.000147751
0.000655752
-0.000167384
0.000691322
-0.000175666
0.000716403
-0.000168818
0.000731806
-0.000140092
0.000723602
-8.73759e-05
0.000716509
-5.88644e-07
0.000623994
0.000132042
0.000601164
0.000353644
0.000323429
-7.17059e-06
0.000156609
-2.45691e-05
0.000349568
-4.78719e-05
0.000483027
-7.28013e-05
0.000571757
-9.53114e-05
0.00063181
-0.000111464
0.000671904
-0.000117257
0.000697116
-0.000108205
0.000707351
-7.9889e-05
0.000703489
-2.62046e-05
0.000669917
5.98861e-05
0.000630418
0.000190282
0.000493598
0.000355364
0.000436082
0.000104671
0.000604337
-5.63629e-06
0.000162245
-1.96629e-05
0.000363594
-3.79354e-05
0.000501299
-5.61452e-05
0.000589967
-6.99836e-05
0.000645649
-7.51185e-05
0.000677039
-6.7059e-05
0.000689056
-4.07939e-05
0.000681086
9.44216e-06
0.000653253
8.87686e-05
0.000590591
0.000203819
0.000515368
0.000373698
0.000323718
0.000577405
0.000232375
-0.000200128
0.000882205
-4.21735e-06
0.000166462
-1.50022e-05
0.000374379
-2.83434e-05
0.000514641
-3.98965e-05
0.00060152
-4.51156e-05
0.000650868
-3.931e-05
0.000671234
-1.75186e-05
0.000667265
2.56709e-05
0.000637897
9.64064e-05
0.000582518
0.000201786
0.000485211
0.000347088
0.000370066
0.000554388
0.000116418
0.00079849
-1.17269e-05
-0.000561851
0.00116021
-2.94931e-06
0.000169412
-1.06876e-05
0.000382117
-1.9281e-05
0.000523234
-2.4335e-05
0.000606574
-2.10858e-05
0.000647618
-4.51426e-06
0.000654662
3.08038e-05
0.000631947
9.08332e-05
0.000577867
0.000182328
0.000491023
0.000312771
0.000354768
0.000489786
0.000193051
0.000734263
-0.000128058
0.00102236
-0.000299822
-0.000983385
0.00144389
-1.86055e-06
0.000171272
-6.79969e-06
0.000387056
-1.08967e-05
0.000527331
-9.67953e-06
0.000605357
1.8276e-06
0.000636111
2.89815e-05
0.000627508
7.76611e-05
0.000583267
0.000154414
0.000501114
0.000267056
0.000378381
0.000422886
0.000198939
0.000633969
-1.80323e-05
0.000916807
-0.000410897
0.0012548
-0.000637816
-0.0014681
0.00173952
-9.71339e-07
0.000172243
-3.39424e-06
0.000389479
-3.29411e-06
0.000527231
3.92698e-06
0.000598136
2.34702e-05
0.000616568
6.10604e-05
0.000589918
0.000123128
0.0005212
0.000216891
0.000407351
0.00035164
0.000243631
0.000534335
1.62445e-05
0.000782973
-0.00026667
0.00110703
-0.000734952
0.00150228
-0.00103307
-0.00201738
0.00205156
-2.95239e-07
0.000172539
-4.80231e-07
0.000389664
3.47644e-06
0.000523274
1.64293e-05
0.000585183
4.38362e-05
0.000589161
9.18648e-05
0.000541889
0.000167648
0.000445417
0.000279277
0.000295722
0.000437923
8.49858e-05
0.000650446
-0.000196279
0.000940937
-0.000557161
0.00131059
-0.00110461
0.00176999
-0.00149247
-0.00262729
0.00237991
1.82289e-07
0.000172356
1.86102e-06
0.000387986
9.41863e-06
0.000515717
2.78791e-05
0.000566722
6.30876e-05
0.000553953
0.000121799
0.000483178
0.000212072
0.000355144
0.000343168
0.000164626
0.000528427
-0.000100273
0.000775316
-0.000443168
0.0011121
-0.000893942
0.00153232
-0.00152484
0.00205949
-0.00201963
-0.00328608
0.00271827
4.60664e-07
0.000171896
3.73618e-06
0.00038471
1.46063e-05
0.000504846
3.84343e-05
0.000542894
8.15662e-05
0.000510821
0.000151547
0.000413197
0.000257653
0.000249038
0.00041068
1.15996e-05
0.000626139
-0.000315732
0.000913105
-0.000730134
0.00129985
-0.00128069
0.00177419
-0.00199918
0.00236652
-0.00261197
-0.00397402
0.00305446
5.48048e-07
0.000171348
5.18968e-06
0.000380068
1.91739e-05
0.000490862
4.83677e-05
0.000513701
9.97965e-05
0.000459392
0.000182062
0.000330931
0.000305996
0.000125104
0.000484286
-0.000166691
0.000734172
-0.000565618
0.00106705
-0.00106301
0.00150562
-0.00171926
0.00203358
-0.00252713
0.00268015
-0.00325854
-0.00466649
0.00337261
4.85101e-07
0.000170863
6.30871e-06
0.000374245
2.33184e-05
0.000473853
5.80618e-05
0.000478957
0.000118476
0.000398978
0.000214536
0.000234871
0.000358956
-1.93154e-05
0.000566552
-0.000374287
0.000855296
-0.000854362
0.00123845
-0.00144616
0.00172772
-0.00220853
0.00230265
-0.00310207
0.00298399
-0.00393987
-0.00533899
0.00365649
3.1235e-07
0.00017055
7.21108e-06
0.000367346
2.72947e-05
0.000453769
6.79983e-05
0.000438254
0.000138447
0.000328529
0.000250332
0.000122986
0.000418486
-0.000187469
0.000659769
-0.00061557
0.000991318
-0.00118591
0.001426
-0.00188085
0.00196058
-0.00274311
0.00256932
-0.00371081
0.00325999
-0.00463054
-0.00597181
0.00389281
8.26629e-08
0.000170468
8.03798e-06
0.000359391
3.1406e-05
0.000430401
7.87392e-05
0.00039092
0.000160662
0.000246607
0.000290895
-7.24793e-06
0.000486433
-0.000383006
0.000765544
-0.000894682
0.0011424
-0.00156276
0.00162548
-0.00236394
0.00219504
-0.00331266
0.00281949
-0.00433525
0.00349294
-0.00530399
-0.00655243
0.00407356
-1.79983e-07
0.000170648
8.94708e-06
0.000350264
3.59914e-05
0.000403357
9.09009e-05
0.000336011
0.000186118
0.00015139
0.000337628
-0.000158758
0.000564294
-0.000609672
0.000884392
-0.00121478
0.00130647
-0.00198485
0.00183001
-0.00288747
0.00241978
-0.00390244
0.00304
-0.00495547
0.00367363
-0.00593762
-0.00707542
0.00419662
-4.11845e-07
0.000171059
1.01077e-05
0.000339744
4.14098e-05
0.000372054
0.000105121
0.0002723
0.000215799
4.07119e-05
0.000391751
-0.00033471
0.000652951
-0.000870872
0.0010154
-0.00157723
0.00147908
-0.00244853
0.00203079
-0.00343918
0.00262359
-0.00449524
0.00322112
-0.00555299
0.00379958
-0.00651608
-0.00754119
0.00426534
-5.48393e-07
0.000171608
1.16918e-05
0.000327504
4.80224e-05
0.000335724
0.000122022
0.0001983
0.000250595
-8.78603e-05
0.000454156
-0.000538272
0.000752407
-0.00116912
0.00115603
-0.00198085
0.00165377
-0.00294627
0.00221853
-0.00400394
0.00279751
-0.00507422
0.00335773
-0.00611321
0.00387358
-0.00703194
-0.00795396
0.00428635
-5.36775e-07
0.000172145
1.38658e-05
0.000313101
5.61747e-05
0.000293415
0.000142177
0.000112298
0.000291229
-0.000236913
0.000525248
-0.00077229
0.000861576
-0.00150545
0.00130218
-0.00242145
0.00182299
-0.00346708
0.00238493
-0.00456588
0.00293605
-0.00562534
0.00344923
-0.00662639
0.00390153
-0.00748424
-0.00832111
0.00426869
-3.16401e-07
0.000172461
1.67831e-05
0.000296002
6.61793e-05
0.000244019
0.000166069
1.24074e-05
0.000338187
-0.00040903
0.000604815
-0.00103892
0.000978196
-0.00187883
0.00144853
-0.00289178
0.0019793
-0.00399785
0.00252398
-0.00511057
0.00303735
-0.00613871
0.00349866
-0.00708771
0.00389005
-0.00787564
-0.00865751
0.00422645
1.53197e-07
0.000172308
2.05768e-05
0.000275578
7.83016e-05
0.000186294
0.000194071
-0.000103362
0.000391644
-0.000606603
0.000691923
-0.0013392
0.00109891
-0.00228582
0.00158921
-0.00338208
0.00211647
-0.00452511
0.00263247
-0.00562656
0.00310234
-0.00660858
0.00351184
-0.0074972
0.0038559
-0.0082197
-0.00896536
0.00416375
8.03836e-07
0.000171504
2.53532e-05
0.000251029
9.27512e-05
0.000118896
0.00022641
-0.00023702
0.000451406
-0.000831599
0.000784869
-0.00167266
0.00121957
-0.00272052
0.00171865
-0.00388115
0.0022302
-0.00503666
0.00270978
-0.00610614
0.00313392
-0.00703272
0.0034947
-0.00785798
0.00380466
-0.00852966
-0.00923713
0.00407643
1.76529e-06
0.000169739
3.11994e-05
0.000221595
0.000109675
4.04207e-05
0.000263157
-0.000390503
0.000516856
-0.0010853
0.000881242
-0.00203705
0.00133572
-0.003175
0.00183221
-0.00437764
0.00231833
-0.00552278
0.00275729
-0.0065451
0.00313635
-0.00741178
0.00345525
-0.00817688
0.00373147
-0.00880588
-0.00948024
0.00397458
3.03919e-06
0.000166699
3.81727e-05
0.000186461
0.000129153
-5.056e-05
0.000304199
-0.000565548
0.000586922
-0.00136802
0.000978087
-0.00242821
0.00144311
-0.00364003
0.00192671
-0.00486124
0.00238062
-0.00597669
0.00277767
-0.00694215
0.00311465
-0.00774876
0.00339708
-0.00845931
0.00364552
-0.00905432
-0.00970231
0.00386758
4.63163e-06
0.000162068
4.63052e-05
0.000144788
0.000151204
-0.000155459
0.00034922
-0.000763563
0.000660088
-0.00167889
0.00107219
-0.00284031
0.00153821
-0.00410605
0.00200049
-0.00532351
0.00241824
-0.00639444
0.00277436
-0.00729827
0.00307326
-0.00804766
0.00332479
-0.00871084
0.00354993
-0.00927946
-0.00990656
0.00375418
6.54512e-06
0.000155523
5.56075e-05
9.57253e-05
0.000175777
-0.000275628
0.000397679
-0.000985465
0.000734462
-0.00201567
0.00116041
-0.00326626
0.00161847
-0.00456411
0.00205325
-0.0057583
0.00243334
-0.00677453
0.00275096
-0.0076159
0.00301628
-0.00831298
0.00324173
-0.00893629
0.00344741
-0.00948514
-0.0100962
0.00363703
8.77851e-06
0.000146744
6.60718e-05
3.8432e-05
0.000202749
-0.000412306
0.000448796
-0.00123151
0.000807912
-0.00237479
0.00123999
-0.00369834
0.00168241
-0.00500653
0.00208577
-0.00616166
0.00242854
-0.0071173
0.00271097
-0.00789832
0.00294712
-0.00854913
0.00315065
-0.00913983
0.00333993
-0.00967442
-0.0102732
0.00351695
1.13281e-05
0.000135416
7.76751e-05
-2.7915e-05
0.000231921
-0.000566552
0.000501561
-0.00150115
0.000878238
-0.00275147
0.00130879
-0.00412889
0.00172956
-0.00542729
0.00209954
-0.00653165
0.00240665
-0.00742441
0.00265754
-0.00814921
0.00286861
-0.0087602
0.00305364
-0.00932486
0.00322885
-0.00984963
-0.0104391
0.00339475
1.41889e-05
0.000121227
9.03801e-05
-0.000104106
0.000262995
-0.000739166
0.000554767
-0.00179292
0.000943376
-0.00314008
0.0013654
-0.00455092
0.00176025
-0.00582213
0.00209647
-0.00686788
0.00237039
-0.00769832
0.00259342
-0.00837224
0.00278302
-0.00894979
0.00295227
-0.00949411
0.00311514
-0.0100125
-0.0105949
0.00327091
1.73549e-05
0.000103872
0.000104135
-0.000190886
0.000295568
-0.0009306
0.000607079
-0.00210444
0.00100155
-0.00353455
0.00140911
-0.00495847
0.00177539
-0.00618841
0.00207865
-0.00717114
0.00232226
-0.00794193
0.00252092
-0.00857091
0.00269209
-0.00912096
0.0028477
-0.00964971
0.00299948
-0.0101643
-0.0107412
0.00314577
2.08198e-05
8.30525e-05
0.000118868
-0.000288935
0.000329126
-0.00114086
0.000657126
-0.00243244
0.00105142
-0.00392885
0.00143982
-0.00534687
0.00177627
-0.00652486
0.00204817
-0.00744304
0.0022645
-0.00815827
0.00244194
-0.00874834
0.0025972
-0.00927622
0.00274076
-0.00979328
0.00288232
-0.0103058
-0.0108784
0.00301957
2.45771e-05
5.84753e-05
0.000134485
-0.000398842
0.00036305
-0.00136942
0.000703602
-0.00277299
0.00109208
-0.00431733
0.00145791
-0.0057127
0.00176437
-0.00683133
0.00200701
-0.00768567
0.00219904
-0.0083503
0.00235799
-0.0089073
0.00249935
-0.00941758
0.00263207
-0.00992599
0.00276401
-0.0104378
-0.0110069
0.00289248
2.86193e-05
2.98561e-05
0.000150852
-0.000521075
0.00039664
-0.00161521
0.000745355
-0.0031217
0.00112309
-0.00469506
0.00146413
-0.00605373
0.00174126
-0.00710846
0.00195699
-0.0079014
0.00212748
-0.00852079
0.00227028
-0.0090501
0.00239932
-0.00954661
0.00252204
-0.0100487
0.00264478
-0.0105605
-0.0111267
0.00276462
3.29374e-05
-3.08128e-06
0.000167796
-0.000655934
0.000429155
-0.00187657
0.000781459
-0.00347401
0.00114439
-0.005058
0.00145943
-0.00636876
0.00170847
-0.00735751
0.00189972
-0.00809265
0.00205117
-0.00867224
0.00217974
-0.00917867
0.00229766
-0.00966454
0.00241101
-0.0101621
0.0025248
-0.0106743
-0.011238
0.0026361
3.75203e-05
-4.06016e-05
0.000185096
-0.000803509
0.000459854
-0.00215133
0.000811254
-0.00382541
0.00115624
-0.00540298
0.00144489
-0.00665741
0.00166745
-0.00758007
0.00183659
-0.00826179
0.00197119
-0.00880685
0.00208709
-0.00929457
0.00219481
-0.00977225
0.00229919
-0.0102664
0.00240421
-0.0107793
-0.0113408
0.00250699
4.23534e-05
-8.29551e-05
0.000202485
-0.000963641
0.000488037
-0.00243688
0.000834348
-0.00417172
0.00115911
-0.00572775
0.00142163
-0.00691993
0.00161953
-0.00777797
0.00176878
-0.00841104
0.00188842
-0.00892648
0.00199288
-0.00939903
0.00209106
-0.00987044
0.00218676
-0.0103621
0.0022831
-0.0108757
-0.0114351
0.00237738
4.74162e-05
-0.000130371
0.000219666
-0.00113589
0.000513088
-0.0027303
0.000850603
-0.00450923
0.00115366
-0.0060308
0.00139077
-0.00715704
0.00156589
-0.00795309
0.0016973
-0.00854245
0.00180354
-0.00903272
0.00189753
-0.00949302
0.00198666
-0.00995957
0.00207386
-0.0104493
0.00216159
-0.0109634
-0.0115208
0.00224733
5.26795e-05
-0.000183051
0.000236319
-0.00131953
0.000534501
-0.00302848
0.000860091
-0.00483482
0.0011406
-0.0063113
0.00135337
-0.00736981
0.00150759
-0.00810731
0.00162296
-0.00865782
0.00171711
-0.00912686
0.00180137
-0.00957728
0.00188179
-0.01004
0.0019606
-0.0105282
0.00203974
-0.0110425
-0.011598
0.00211692
5.81026e-05
-0.000241153
0.000252126
-0.00151355
0.000551907
-0.00332826
0.000863049
-0.00514597
0.00112071
-0.00656897
0.0013104
-0.00755951
0.00144553
-0.00824244
0.00154645
-0.00875874
0.00162954
-0.00920996
0.00170463
-0.00965237
0.00177658
-0.0101119
0.00184708
-0.0105987
0.00191764
-0.0111131
-0.0116666
0.00198622
6.3631e-05
-0.000304784
0.000266775
-0.0017167
0.000565076
-0.00362657
0.000859836
-0.00544072
0.00109478
-0.00680391
0.00126278
-0.0077275
0.00138049
-0.00836016
0.0014683
-0.00884655
0.00154119
-0.00928286
0.00160752
-0.00971869
0.00167116
-0.0101756
0.00173338
-0.0106609
0.00179537
-0.0111751
-0.0117265
0.0018553
6.91955e-05
-0.00037398
0.000279983
-0.00192749
0.000573912
-0.00392049
0.000850892
-0.0057177
0.00106356
-0.00701658
0.00121129
-0.00787523
0.00131312
-0.00846198
0.00138897
-0.0089224
0.00145232
-0.00934621
0.00151019
-0.00977656
0.00156563
-0.010231
0.00161958
-0.0107148
0.00167299
-0.0112285
-0.0117777
0.00172424
7.47144e-05
-0.000448694
0.000291498
-0.00214427
0.000578435
-0.00420743
0.000836705
-0.00597597
0.00102779
-0.00720766
0.00115665
-0.0080041
0.00124396
-0.0085493
0.00130881
-0.00898724
0.00136313
-0.00940053
0.00141275
-0.00982619
0.00146006
-0.0102783
0.00150576
-0.0107605
0.00155059
-0.0112733
-0.0118203
0.00159311
8.00971e-05
-0.000528791
0.00030111
-0.00236528
0.000578764
-0.00448509
0.000817787
-0.006215
0.000988122
-0.007378
0.00109949
-0.00811546
0.00117349
-0.0086233
0.0012281
-0.00904185
0.00127379
-0.00944622
0.00131533
-0.00986772
0.00135455
-0.0103175
0.00139198
-0.010798
0.00142823
-0.0113096
-0.011854
0.00146199
8.52487e-05
-0.00061404
0.000308657
-0.00258869
0.000575094
-0.00475152
0.000794653
-0.00643456
0.000945183
-0.00752853
0.00104032
-0.0082106
0.00110207
-0.00868504
0.0011471
-0.00908688
0.00118445
-0.00948357
0.001218
-0.00990127
0.00124916
-0.0103487
0.00127834
-0.0108271
0.00130598
-0.0113372
-0.011879
0.00133096
9.00751e-05
-0.000704115
0.000314029
-0.00281264
0.000567668
-0.00500516
0.000767803
-0.00663469
0.000899528
-0.00766025
0.000979632
-0.00829071
0.00103002
-0.00873543
0.00106597
-0.00912282
0.0010952
-0.00951281
0.00112085
-0.00992691
0.00114396
-0.0103718
0.00116488
-0.0108481
0.00118393
-0.0113563
-0.0118952
0.00120011
9.44869e-05
-0.000798602
0.000317169
-0.00303533
0.00055677
-0.00524476
0.00073772
-0.00681564
0.000851654
-0.00777419
0.000917802
-0.00835685
0.000957604
-0.00877524
0.000984876
-0.0091501
0.00100616
-0.0095341
0.00102395
-0.0099447
0.00103904
-0.0103869
0.00105169
-0.0108607
0.00106215
-0.0113667
-0.0119026
0.00106952
9.84018e-05
-0.000897004
0.000318067
-0.00325499
0.000542699
-0.0054694
0.000704857
-0.0069778
0.000802002
-0.00787133
0.000855167
-0.00841002
0.000885027
-0.0088051
0.000903946
-0.00916902
0.000917409
-0.00954756
0.000927374
-0.00995467
0.000934445
-0.010394
0.000938835
-0.0108651
0.000940704
-0.0113686
-0.0119011
0.000939282
0.000101747
-0.000998751
0.000316757
-0.00347
0.000525764
-0.0056784
0.000669635
-0.00712167
0.000750962
-0.00795266
0.000792011
-0.00845107
0.000812468
-0.00882555
0.000823285
-0.00917983
0.000829014
-0.00955329
0.000831187
-0.00995684
0.000830252
-0.010393
0.000826385
-0.0108612
0.000819677
-0.0113619
-0.0118909
0.000809473
0.000104461
-0.00110321
0.000313311
-0.00367885
0.000506273
-0.00587136
0.000632438
-0.00724784
0.000698869
-0.00801909
0.000728569
-0.00848077
0.000740069
-0.00883705
0.000742981
-0.00918274
0.000741045
-0.00955135
0.000735449
-0.00995124
0.00072652
-0.0103841
0.000714404
-0.0108491
0.000699136
-0.0113466
-0.011872
0.000680178
0.000106492
-0.0012097
0.000307832
-0.00388019
0.000484526
-0.00604806
0.000593621
-0.00735693
0.000646023
-0.00807149
0.000665046
-0.00849979
0.00066796
-0.00883997
0.00066312
-0.00917791
0.000653574
-0.00954181
0.00064023
-0.0099379
0.000623323
-0.0103672
0.00060297
-0.0108288
0.000579181
-0.0113228
-0.0118443
0.000551486
0.000107802
-0.00131751
0.000300444
-0.00407283
0.000460811
-0.00620843
0.0005535
-0.00744962
0.000592678
-0.00811067
0.000601609
-0.00850872
0.000596239
-0.0088346
0.000583769
-0.00916544
0.000566657
-0.00952469
0.000545587
-0.00991683
0.000520718
-0.0103423
0.000492139
-0.0108002
0.000459876
-0.0112906
-0.0118079
0.000423461
0.000108364
-0.00142587
0.000291285
-0.00425576
0.000435399
-0.00635254
0.000512359
-0.00752658
0.000539054
-0.00813737
0.0005384
-0.00850807
0.000524995
-0.00882119
0.000504992
-0.00914543
0.000480352
-0.00950005
0.000451581
-0.00988806
0.000418774
-0.0103095
0.000381983
-0.0107634
0.000341264
-0.0112499
-0.0117628
0.000296166
0.000108167
-0.00153404
0.000280507
-0.0044281
0.000408545
-0.00648058
0.000470453
-0.00758849
0.000485341
-0.00815225
0.000475538
-0.00849826
0.000454303
-0.00879996
0.000426846
-0.00911798
0.000394714
-0.00946792
0.000358269
-0.00985161
0.000317554
-0.0102688
0.000272599
-0.0107184
0.000223393
-0.0112007
-0.0117089
0.000169558
0.00010721
-0.00164125
0.000268276
-0.00458916
0.000380487
-0.00659279
0.000428006
-0.00763601
0.000431702
-0.00815595
0.000413127
-0.00847969
0.000384229
-0.00877106
0.000349385
-0.00908313
0.000309796
-0.00942833
0.000265705
-0.00980752
0.000217112
-0.0102202
0.000164085
-0.0106654
0.00010646
-0.011143
-0.0116457
4.32182e-05
0.000105508
-0.00174675
0.000254756
-0.00473841
0.000351447
-0.00668948
0.000385217
-0.00766978
0.000378277
-0.00814901
0.000351252
-0.00845266
0.000314832
-0.00873464
0.000272659
-0.00904096
0.000225649
-0.00938132
0.000173949
-0.00975582
0.000117495
-0.0101638
5.63207e-05
-0.0106042
-8.67003e-06
-0.011078
-0.0115732
-8.11505e-05
0.000103084
-0.00184984
0.000240103
-0.00487543
0.000321625
-0.006771
0.000342262
-0.00769041
0.000325185
-0.00813193
0.000289988
-0.00841746
0.000246163
-0.00869081
0.000196715
-0.00899151
0.00014232
-0.00932693
8.30514e-05
-0.00969655
1.87433e-05
-0.0100995
-5.0411e-05
-0.0105351
-0.000124535
-0.0110039
-0.0114935
-0.000204286
9.99737e-05
-0.00194981
0.000224465
-0.00499992
0.000291204
-0.00683774
0.000299294
-0.0076985
0.000272529
-0.00810517
0.000229397
-0.00837433
0.000178271
-0.00863969
0.000121597
-0.00893484
5.98352e-05
-0.00926517
-7.08715e-06
-0.00962963
-7.88959e-05
-0.0100277
-0.000155867
-0.0104581
-0.000238512
-0.0109213
-0.0114055
-0.000326487
9.62187e-05
-0.00204603
0.000207986
-0.00511169
0.000260352
-0.00689011
0.000256448
-0.0076946
0.000220397
-0.00806912
0.000169535
-0.00832347
0.000111196
-0.00858135
4.73185e-05
-0.00887096
-2.17617e-05
-0.00919609
-9.58899e-05
-0.0095555
-0.000175516
-0.00994803
-0.000260433
-0.0103732
-0.000351228
-0.0108305
-0.0113092
-0.000447547
9.18676e-05
-0.0021379
0.000190801
-0.00521062
0.000229217
-0.00692852
0.00021384
-0.00767922
0.00016886
-0.00802414
0.000110451
-0.00826506
4.4946e-05
-0.00851584
-2.60421e-05
-0.00879997
-0.000102192
-0.00911994
-0.00018383
-0.00947386
-0.000271063
-0.0098608
-0.000363871
-0.0102804
-0.000462705
-0.0107316
-0.0112046
-0.000567321
8.6973e-05
-0.00222487
0.000173039
-0.00529669
0.000197935
-0.00695342
0.000171573
-0.00765286
0.000117978
-0.00797054
5.21791e-05
-0.00819926
-2.04329e-05
-0.00844323
-9.83024e-05
-0.0087221
-0.000181694
-0.00903654
-0.000270696
-0.00938486
-0.000365471
-0.00976602
-0.000466089
-0.0101798
-0.000572904
-0.0106248
-0.0110917
-0.000685731
8.15907e-05
-0.00230646
0.000154819
-0.00536992
0.000166627
-0.00696522
0.000129734
-0.00761597
6.78017e-05
-0.00790861
-5.44937e-06
-0.00812601
-8.46615e-05
-0.00836402
-0.000169622
-0.00863714
-0.000260144
-0.00894602
-0.00035643
-0.00928858
-0.000458678
-0.00966377
-0.00056702
-0.0100714
-0.000681758
-0.0105101
-0.0109708
-0.000802699
7.57776e-05
-0.00238224
0.000136255
-0.00543039
0.000135403
-0.00696437
8.83963e-05
-0.00756896
1.8282e-05
-0.00783849
-6.16627e-05
-0.00804607
-0.000148001
-0.00827768
-0.000239911
-0.00854523
-0.000337487
-0.00884845
-0.000440981
-0.00918508
-0.000550624
-0.00955413
-0.000666603
-0.00995544
-0.0007892
-0.0103875
-0.0108418
-0.000918155
6.9591e-05
-0.00245183
0.000117452
-0.00547825
0.000104356
-0.00695128
4.76461e-05
-0.00751225
-3.01921e-05
-0.00776066
-0.000117187
-0.00795907
-0.000210344
-0.00818452
-0.000309125
-0.00844645
-0.00041368
-0.00874389
-0.000524299
-0.00907446
-0.000641253
-0.00943718
-0.000764779
-0.00983191
-0.00089516
-0.0102571
-0.010705
-0.00103203
6.30868e-05
-0.00251492
9.85096e-05
-0.00551368
7.35719e-05
-0.00692634
7.52943e-06
-0.00744621
-7.77817e-05
-0.00767535
-0.000171754
-0.0078651
-0.00027165
-0.00808463
-0.000377223
-0.00834088
-0.000488677
-0.00863244
-0.000606338
-0.0089568
-0.000730509
-0.009313
-0.000861488
-0.00970094
-0.000999572
-0.010119
-0.0105603
-0.00114425
5.63187e-05
-0.00257124
7.95261e-05
-0.00553688
4.31245e-05
-0.00688994
-3.18827e-05
-0.0073712
-0.000124568
-0.00758266
-0.000225329
-0.00776434
-0.000331885
-0.00797807
-0.000444169
-0.00822859
-0.000562439
-0.00851417
-0.000687049
-0.00883219
-0.00081834
-0.00918171
-0.000956671
-0.00956261
-0.00110237
-0.00997333
-0.0104079
-0.00125476
4.93403e-05
-0.00262058
6.05974e-05
-0.00554814
1.30854e-05
-0.00684242
-7.05751e-05
-0.00728754
-0.000170457
-0.00748278
-0.000277883
-0.00765691
-0.000391016
-0.00786494
-0.000509927
-0.00810968
-0.000634923
-0.00838917
-0.000766388
-0.00870073
-0.000904694
-0.00904341
-0.00105027
-0.00941703
-0.00120349
-0.00982011
-0.0102479
-0.00136349
4.22108e-05
-0.00266279
4.18287e-05
-0.00554776
-1.64855e-05
-0.00678411
-0.000108509
-0.00719552
-0.00021541
-0.00737588
-0.000329393
-0.00754293
-0.000449014
-0.00774532
-0.000574463
-0.00798423
-0.000706091
-0.00825754
-0.00084431
-0.00856251
-0.000989522
-0.00889819
-0.00114223
-0.00926433
-0.00130287
-0.00965946
-0.0100804
-0.00147037
3.49919e-05
-0.00269778
2.34018e-05
-0.00553617
-4.54799e-05
-0.00671523
-0.00014566
-0.00709534
-0.000259405
-0.00726213
-0.000379834
-0.0074225
-0.00050585
-0.0076193
-0.000637742
-0.00785234
-0.000775904
-0.00811938
-0.000920773
-0.00841764
-0.00107277
-0.00874619
-0.00123248
-0.00910462
-0.00140044
-0.0094915
-0.00990549
-0.00157534
2.77113e-05
-0.00272549
5.91694e-06
-0.00551438
-7.38773e-05
-0.00663543
-0.000182017
-0.0069872
-0.000302424
-0.00714172
-0.000429184
-0.00729574
-0.000561497
-0.00748699
-0.000699733
-0.00771411
-0.000844326
-0.00797479
-0.000995736
-0.00826623
-0.00115441
-0.00858752
-0.00132099
-0.00893803
-0.00149615
-0.00931635
-0.00972331
-0.00167834
2.03179e-05
-0.00274581
-1.32103e-05
-0.00548085
-0.000101792
-0.00654685
-0.000217535
-0.00687146
-0.000344446
-0.00701481
-0.000477419
-0.00716277
-0.000615926
-0.00734848
-0.000760402
-0.00756963
-0.000911321
-0.00782387
-0.00106916
-0.00810839
-0.00123438
-0.0084223
-0.00140771
-0.0087647
-0.00158995
-0.00913411
-0.00953397
-0.00177929
1.28823e-05
-0.00275869
-3.21773e-05
-0.00543579
-0.000129165
-0.00644987
-0.000252181
-0.00674844
-0.000385449
-0.00688155
-0.00052452
-0.0070237
-0.000669111
-0.00720389
-0.000819719
-0.00741902
-0.000976851
-0.00766674
-0.001141
-0.00794424
-0.00131265
-0.00825065
-0.00149261
-0.00858475
-0.0016818
-0.00894492
-0.00933773
-0.00187803
5.54103e-06
-0.00276423
-5.03284e-05
-0.00537992
-0.00015591
-0.00634428
-0.000285938
-0.00661841
-0.000425411
-0.00674207
-0.000570464
-0.00687865
-0.000721027
-0.00705333
-0.000877653
-0.0072624
-0.00104088
-0.00750351
-0.00121123
-0.00777389
-0.00138918
-0.00807269
-0.00157563
-0.0083983
-0.00177161
-0.00874894
-0.00913488
-0.00197446
-1.6582e-06
-0.00276257
-6.79461e-05
-0.00531363
-0.000181982
-0.00623025
-0.000318791
-0.0064816
-0.000464317
-0.00659655
-0.00061523
-0.00672773
-0.000771648
-0.00689691
-0.000934174
-0.00709987
-0.00110338
-0.0073343
-0.0012798
-0.00759748
-0.00146393
-0.00788856
-0.00165676
-0.00820547
-0.00185934
-0.00854636
-0.00892537
-0.00206885
-9.37682e-06
-0.0027532
-8.51215e-05
-0.00523789
-0.000207346
-0.00610802
-0.000350722
-0.00633823
-0.00050215
-0.00644512
-0.000658799
-0.00657108
-0.00082095
-0.00673476
-0.000989252
-0.00693157
-0.00116431
-0.00715924
-0.00134667
-0.00741512
-0.0015369
-0.00769833
-0.00173602
-0.00800635
-0.00194496
-0.00833742
-0.00870934
-0.00216099
-1.67229e-05
-0.00273647
-0.000101853
-0.00515276
-0.000231978
-0.0059779
-0.000381716
-0.00618849
-0.000538896
-0.00628794
-0.000701152
-0.00640883
-0.000868907
-0.006567
-0.00104286
-0.00675762
-0.00122364
-0.00697846
-0.00141181
-0.00722695
-0.00160807
-0.00750208
-0.00181349
-0.00780093
-0.00202819
-0.00812272
-0.00848861
-0.00224892
-2.38902e-05
-0.00271258
-0.00011813
-0.00505852
-0.000255865
-0.00584016
-0.00041176
-0.00603259
-0.00057454
-0.00612516
-0.00074227
-0.0062411
-0.000915498
-0.00639378
-0.00109496
-0.00657816
-0.00128132
-0.0067921
-0.00147519
-0.00703307
-0.00167739
-0.00729987
-0.00188899
-0.00758933
-0.00211011
-0.0079016
-0.00826715
-0.00233157
-3.08938e-05
-0.00268169
-0.000133941
-0.00495547
-0.000278994
-0.00569511
-0.000440842
-0.00587075
-0.00060907
-0.00595693
-0.000782136
-0.00606803
-0.000960699
-0.00621521
-0.00114553
-0.00639333
-0.00133733
-0.0066003
-0.00153677
-0.00683364
-0.00174474
-0.0070919
-0.00196171
-0.00737236
-0.00218462
-0.0076787
-0.00802274
-0.00242903
-3.77296e-05
-0.00264396
-0.000149271
-0.00484393
-0.000301352
-0.00554303
-0.000468952
-0.00570315
-0.000642473
-0.00578341
-0.000820732
-0.00588977
-0.00100449
-0.00603146
-0.00119455
-0.00620327
-0.00139164
-0.00640321
-0.0015965
-0.00662878
-0.00180995
-0.00687845
-0.00203198
-0.00715033
-0.00226208
-0.00744859
-0.00777354
-0.00251128
-4.43878e-05
-0.00259957
-0.000164108
-0.00472421
-0.000322931
-0.00538421
-0.000496082
-0.00553
-0.000674736
-0.00560475
-0.000858041
-0.00570647
-0.00104684
-0.00584266
-0.00124198
-0.00600813
-0.00144422
-0.00620096
-0.00165434
-0.00641866
-0.00187311
-0.00665968
-0.00210062
-0.00692282
-0.00233786
-0.00721135
-0.0075205
-0.0025909
-5.08571e-05
-0.00254871
-0.00017844
-0.00459662
-0.000343723
-0.00521892
-0.000522223
-0.0053515
-0.00070585
-0.00542113
-0.000894048
-0.00551827
-0.00108774
-0.00564897