/*--------------------------------*- C++ -*----------------------------------*\
  =========                 |
  \\      /  F ield         | OpenFOAM: The Open Source CFD Toolbox
   \\    /   O peration     | Website:  https://openfoam.org
    \\  /    A nd           | Version:  7
     \\/     M anipulation  |
\*---------------------------------------------------------------------------*/
FoamFile
{
    version     2.0;
    format      ascii;
    class       volVectorField;
    location    "10";
    object      U;
}
// * * * * * * * * * * * * * * * * * * * * * * * * * * * * * * * * * * * * * //

dimensions      [0 1 -1 0 0 0 0];

internalField   nonuniform List<vector> 
16660
(
(-0.00428724 0.00186974 -3.43825e-21)
(-0.0220638 0.00365195 -1.5446e-20)
(-0.0501672 0.00450925 -2.13863e-20)
(-0.0790975 0.00488149 5.74581e-21)
(-0.108902 0.00502317 6.38618e-21)
(-0.138062 0.00508321 1.48028e-22)
(-0.166746 0.00513225 -1.16755e-20)
(-0.194961 0.00519703 -2.66145e-21)
(-0.222934 0.00528411 -1.69825e-20)
(-0.250717 0.00537661 -2.19217e-21)
(-0.278516 0.00549712 -1.54373e-20)
(-0.30602 0.00555194 -1.63528e-20)
(-0.334194 0.00576317 2.73424e-21)
(-0.36038 0.00562493 -1.01061e-20)
(-0.00442487 0.0055928 -2.79282e-21)
(-0.0221673 0.010937 6.01044e-20)
(-0.0500239 0.0135125 -1.01643e-20)
(-0.078623 0.0146308 -7.41536e-21)
(-0.108009 0.0150541 -3.32488e-20)
(-0.136663 0.015229 1.50084e-20)
(-0.164736 0.0153678 1.45596e-20)
(-0.192209 0.0155509 4.5432e-20)
(-0.219286 0.0157983 -6.51192e-21)
(-0.245975 0.016057 -1.61645e-20)
(-0.272483 0.0163997 2.70466e-20)
(-0.298346 0.0165248 2.48468e-20)
(-0.324737 0.0171506 2.75785e-20)
(-0.348229 0.0166558 2.65922e-20)
(-0.0046965 0.00922388 3.79861e-21)
(-0.0223734 0.0180758 -8.35509e-20)
(-0.0497432 0.0223573 1.5267e-20)
(-0.0776867 0.0242185 -6.74108e-20)
(-0.106243 0.0249175 -4.04591e-20)
(-0.133898 0.0251942 4.18368e-21)
(-0.160761 0.0254024 -1.97441e-21)
(-0.186769 0.0256764 -4.51543e-20)
(-0.212083 0.0260511 6.11296e-20)
(-0.236621 0.0264316 1.60142e-20)
(-0.260611 0.0269559 1.02648e-20)
(-0.283257 0.0270529 -8.05203e-20)
(-0.306228 0.0280939 3.75405e-20)
(-0.324477 0.0270367 2.30806e-20)
(-0.00509478 0.0127049 1.00311e-20)
(-0.02268 0.0249747 -3.52763e-20)
(-0.0493363 0.0309408 1.65983e-20)
(-0.0763139 0.0335386 2.96152e-20)
(-0.103647 0.0345036 -8.28406e-21)
(-0.129826 0.0348609 -8.33511e-20)
(-0.15491 0.0351056 9.52347e-20)
(-0.178768 0.0354262 1.15309e-19)
(-0.201509 0.0358754 1.22611e-20)
(-0.22291 0.0363061 -2.6821e-20)
(-0.243277 0.0369506 5.07722e-20)
(-0.261247 0.036861 3.58435e-20)
(-0.279439 0.0383223 -3.93053e-20)
(-0.290165 0.0363865 -1.55782e-19)
(-0.00560914 0.0159826 6.66705e-20)
(-0.0230844 0.0315453 -1.30875e-20)
(-0.0488195 0.0391642 8.35243e-20)
(-0.0745412 0.0424888 -1.53688e-20)
(-0.100279 0.0437056 8.19991e-20)
(-0.124539 0.044115 -2.86591e-20)
(-0.147312 0.0443517 -7.50428e-20)
(-0.168391 0.0446598 -2.49888e-20)
(-0.187825 0.0451138 -4.65133e-20)
(-0.205204 0.0455006 6.35527e-20)
(-0.221015 0.04619 -9.80276e-20)
(-0.233004 0.0457042 1.31675e-19)
(-0.245428 0.0475975 -1.66406e-20)
(-0.246707 0.044397 1.36832e-19)
(-0.00622634 0.0190102 -4.93964e-20)
(-0.0235828 0.0377071 1.21731e-19)
(-0.0482139 0.0469347 -9.363e-20)
(-0.0724153 0.050971 5.90196e-20)
(-0.0962181 0.0524211 5.23492e-20)
(-0.118149 0.052847 8.37386e-20)
(-0.138132 0.0530218 8.04519e-20)
(-0.155868 0.0532459 -6.02495e-20)
(-0.17136 0.0536215 1.7193e-20)
(-0.183948 0.0538528 -1.06748e-19)
(-0.194478 0.0545051 6.37882e-20)
(-0.199351 0.0533785 -1.58619e-19)
(-0.205429 0.0557174 -7.40908e-21)
(-0.195741 0.0508522 -4.96743e-20)
(-0.00693115 0.0217486 -1.28033e-20)
(-0.0241709 0.0433887 4.15925e-21)
(-0.0475439 0.0541668 1.1133e-19)
(-0.0699917 0.0588926 -4.78904e-20)
(-0.0915535 0.0605526 -6.73208e-20)
(-0.110791 0.0609537 -1.11955e-19)
(-0.127561 0.0610051 -6.04474e-20)
(-0.141467 0.0610644 -1.70697e-20)
(-0.152491 0.0612684 1.26951e-19)
(-0.159641 0.0612214 1.67482e-20)
(-0.164395 0.0617505 1.54131e-20)
(-0.161189 0.0597247 2.28245e-19)
(-0.160746 0.0625035 -1.9534e-20)
(-0.138967 0.0556665 4.40976e-20)
(-0.00770713 0.0241677 -2.20973e-21)
(-0.0248439 0.0485298 -2.71845e-20)
(-0.0468366 0.0607837 -1.46332e-20)
(-0.0673317 0.0661683 -8.52979e-20)
(-0.0863866 0.068009 -4.44703e-20)
(-0.102613 0.0683391 1.64191e-19)
(-0.11581 0.0681996 -5.9657e-20)
(-0.125479 0.0680073 -2.56894e-20)
(-0.131624 0.0679398 -1.03688e-20)
(-0.132816 0.0674887 -8.00276e-20)
(-0.131529 0.0677995 -6.48216e-20)
(-0.119452 0.0646438 -1.82765e-19)
(-0.112613 0.0677333 -1.3925e-19)
(-0.0780257 0.058988 9.71025e-20)
(-0.00853747 0.0262471 -7.24259e-20)
(-0.0255968 0.0530821 1.28946e-19)
(-0.0461208 0.0667187 2.92767e-20)
(-0.0645007 0.0727204 1.03004e-19)
(-0.0808247 0.0747066 5.8754e-21)
(-0.093773 0.0749152 -1.72984e-20)
(-0.103099 0.0745138 -1.21622e-20)
(-0.108205 0.0739805 2.54839e-19)
(-0.109174 0.0735377 -2.84862e-19)
(-0.104001 0.0725642 1.27551e-20)
(-0.0966102 0.0725303 2.53192e-20)
(-0.0751022 0.068203 1.3391e-19)
(-0.0620323 0.0710102 -1.64697e-19)
(-0.0144786 0.0611676 8.41084e-20)
(-0.00940587 0.0279761 -1.56814e-19)
(-0.0264244 0.0570104 -5.46005e-20)
(-0.0454253 0.0719164 9.7588e-21)
(-0.061565 0.0784809 3.16183e-20)
(-0.0749769 0.08057 -2.0873e-19)
(-0.0844292 0.0806032 6.4733e-20)
(-0.0896495 0.079867 -5.5251e-20)
(-0.0899403 0.0789048 -1.74441e-19)
(-0.0855381 0.0779812 1.24925e-19)
(-0.0737063 0.076403 7.0568e-20)
(-0.0602269 0.075795 5.0602e-20)
(-0.0291476 0.0707587 2.33173e-19)
(-0.00978757 0.072079 2.53517e-19)
(0.0501842 0.0618344 -7.77539e-20)
(-0.0102973 0.0293541 1.76187e-19)
(-0.0273215 0.0602931 -1.69457e-19)
(-0.0447776 0.0763338 1.38272e-19)
(-0.0585884 0.083392 -2.20484e-19)
(-0.0689482 0.0855332 3.99106e-21)
(-0.0747336 0.0853342 -1.99489e-19)
(-0.0756681 0.0841907 -6.44688e-20)
(-0.0709554 0.0827162 1.42723e-19)
(-0.0610567 0.0811989 1.77951e-19)
(-0.0424072 0.0790306 1.14088e-19)
(-0.0227263 0.0774647 8.53668e-22)
(0.0178925 0.072006 -3.05278e-19)
(0.0429166 0.0716509 1.37336e-19)
(0.116498 0.0606167 -1.3963e-19)
(-0.011199 0.0303898 -6.10955e-20)
(-0.028283 0.0629221 -1.18621e-19)
(-0.0442021 0.0799407 -1.57956e-19)
(-0.0556287 0.0874074 3.3208e-19)
(-0.062834 0.0895413 2.49089e-19)
(-0.0648219 0.089051 1.68978e-19)
(-0.0613345 0.0874296 2.30634e-19)
(-0.0514796 0.0853686 -1.45488e-19)
(-0.0359645 0.0831159 -2.64006e-19)
(-0.0104528 0.0804238 -2.63572e-19)
(0.0154041 0.0776371 2.37888e-19)
(0.0662724 0.0715288 1.73691e-19)
(0.0955288 0.0702764 -1.51966e-19)
(0.184674 0.0576819 -4.00361e-20)
(-0.0121007 0.0311008 1.88981e-19)
(-0.0293037 0.0649027 1.83938e-19)
(-0.0437184 0.0827207 -7.65904e-20)
(-0.0527339 0.0904936 2.0993e-19)
(-0.056713 0.0925514 -1.19765e-19)
(-0.0548031 0.0917093 -2.25992e-19)
(-0.0467845 0.0895435 -1.2356e-19)
(-0.0316851 0.0868358 9.5287e-20)
(-0.0104232 0.0837412 1.58107e-19)
(0.0221122 0.0805082 -2.02786e-20)
(0.053944 0.0764556 -1.16666e-19)
(0.116163 0.0696906 -2.14038e-19)
(0.148365 0.067616 -1.03676e-21)
(0.255679 0.0535328 1.17195e-19)
(-0.0129953 0.0315119 -6.38753e-20)
(-0.0303783 0.0662526 1.19027e-19)
(-0.0433391 0.0846708 1.77552e-19)
(-0.0499374 0.0926308 -2.78575e-19)
(-0.0506395 0.0945345 4.23284e-19)
(-0.044748 0.0932799 1.33128e-19)
(-0.032091 0.0905106 2.38248e-19)
(-0.0116252 0.0871105 -1.99917e-19)
(0.015521 0.0831274 2.67207e-19)
(0.0553941 0.0793387 2.44196e-19)
(0.0932036 0.0738646 -5.98467e-20)
(0.168051 0.0669633 -1.40033e-19)
(0.202302 0.0635199 1.28158e-19)
(0.331223 0.0487685 2.2028e-20)
(-0.0138792 0.031654 -1.72513e-19)
(-0.0315005 0.0670004 4.92477e-20)
(-0.0430679 0.0858019 8.70923e-20)
(-0.0472535 0.0938135 1.04704e-19)
(-0.0446356 0.0954768 -3.05471e-19)
(-0.0346755 0.0937499 -3.32081e-20)
(-0.0172482 0.0903302 -5.98559e-20)
(0.00877157 0.0862088 2.81553e-19)
(0.0420613 0.0812988 -5.67022e-20)
(0.0897136 0.0770967 1.4868e-19)
(0.133948 0.0698873 -5.35436e-20)
(0.22281 0.0637752 2.78033e-19)
(0.258904 0.0580899 -5.104e-20)
(0.413245 0.0440895 -1.1326e-19)
(-0.0147522 0.0315629 2.82494e-20)
(-0.0326624 0.0671836 2.11758e-19)
(-0.0428973 0.0861387 -1.27458e-19)
(-0.0446725 0.0940516 1.02515e-19)
(-0.0386821 0.0953817 -1.32044e-19)
(-0.0245378 0.0931262 3.80348e-20)
(-0.00214685 0.0890258 -1.63026e-19)
(0.0297236 0.0841874 -1.4515e-19)
(0.0696327 0.0783322 -4.62446e-19)
(0.125693 0.0739806 -3.3723e-19)
(0.177423 0.0647317 -1.99648e-19)
(0.281531 0.0605333 -4.33436e-19)
(0.320473 0.051707 -1.1998e-19)
(0.503131 0.0402225 -3.59582e-21)
(-0.0156176 0.0312766 -1.9335e-19)
(-0.0338531 0.0668462 -5.08735e-19)
(-0.042806 0.085719 -2.43265e-19)
(-0.0421562 0.0933708 -3.33683e-19)
(-0.03271 0.0942712 3.42385e-19)
(-0.0142082 0.0914388 -5.39612e-20)
(0.013447 0.0866488 -6.51615e-20)
(0.0516299 0.0811398 -3.3132e-19)
(0.0989259 0.0743777 4.3525e-19)
(0.164258 0.0702072 1.73356e-19)
(0.225321 0.0588371 2.50927e-19)
(0.34531 0.0575631 6.4976e-20)
(0.389772 0.0451465 3.43964e-19)
(0.600888 0.0378018 -2.25284e-19)
(-0.0164807 0.030833 2.26863e-19)
(-0.0350604 0.0660433 -7.74571e-20)
(-0.042754 0.0845883 -2.31012e-19)
(-0.0396325 0.0918117 -1.64638e-20)
(-0.0265919 0.0921877 5.0585e-20)
(-0.00346635 0.0887432 2.07405e-19)
(0.0299079 0.0832846 1.77902e-20)
(0.0750894 0.0772017 9.31196e-20)
(0.130889 0.0696654 -5.26081e-19)
(0.206602 0.0660106 5.33806e-20)
(0.27958 0.0528984 -1.02341e-21)
(0.415046 0.055056 1.93181e-19)
(0.46927 0.0395691 -5.07415e-20)
(0.70458 0.0372955 1.91322e-19)
(-0.0173469 0.0302692 -7.27192e-20)
(-0.0362684 0.0648329 1.39467e-19)
(-0.0426837 0.0828003 5.48952e-19)
(-0.0369897 0.0894308 2.38468e-19)
(-0.0201343 0.0891949 -1.32386e-19)
(0.00801104 0.0851233 -2.49371e-20)
(0.0477605 0.0790575 -2.25808e-19)
(0.100901 0.0725574 3.1279e-19)
(0.166684 0.0645141 2.6707e-19)
(0.2541 0.061648 -2.80555e-19)
(0.341972 0.0477976 -5.12771e-20)
(0.491294 0.0531345 6.91521e-20)
(0.560017 0.0362172 -2.08473e-19)
(0.810397 0.0389524 -2.02578e-19)
(-0.0182233 0.0296216 -6.50171e-20)
(-0.0374511 0.0632683 -2.97969e-20)
(-0.0425184 0.0804201 5.68577e-20)
(-0.0340749 0.0862994 -2.48719e-19)
(-0.0130729 0.0853785 1.99481e-20)
(0.0206563 0.0806935 -3.6547e-19)
(0.0676782 0.0741342 -9.25733e-21)
(0.130041 0.0674447 -2.35122e-19)
(0.207594 0.0593307 -6.95247e-20)
(0.308156 0.0574386 1.80932e-19)
(0.413582 0.0444108 -2.00743e-19)
(0.574075 0.0520203 -4.92446e-19)
(0.660625 0.03595 2.69277e-19)
(0.913399 0.0427193 4.3572e-19)
(-0.019117 0.0289218 -5.48236e-20)
(-0.0385745 0.061401 -3.15281e-20)
(-0.0421573 0.0775184 7.37347e-20)
(-0.0306907 0.0825016 4.90032e-19)
(-0.00506988 0.0808461 1.64669e-19)
(0.0350089 0.075601 1.83459e-19)
(0.0904663 0.0687269 6.63692e-20)
(0.163606 0.0621571 6.24202e-20)
(0.254873 0.0545884 -2.01645e-21)
(0.369971 0.0538168 -1.11654e-19)
(0.494347 0.04337 2.06781e-19)
(0.662594 0.0521285 6.23778e-20)
(0.767018 0.0389308 -4.65173e-20)
(1.00864 0.0481855 -5.1694e-19)
(-0.0200326 0.0281944 -2.93283e-19)
(-0.039596 0.0592811 -3.1953e-20)
(-0.0414753 0.0741679 -4.71801e-19)
(-0.0265953 0.078133 -2.97716e-19)
(0.00428347 0.0757262 -1.86072e-19)
(0.0517046 0.0700251 1.6538e-19)
(0.117026 0.0630942 2.23531e-19)
(0.202726 0.0570437 4.95129e-20)
(0.30956 0.0507845 -9.83459e-20)
(0.440206 0.0513472 3.50256e-19)
(0.582857 0.0449261 2.85224e-19)
(0.754913 0.0539288 1.15189e-19)
(0.87329 0.0446681 -1.44191e-19)
(1.09221 0.0546632 5.73484e-19)
(-0.02097 0.0274568 4.13243e-19)
(-0.0404626 0.0569539 -8.3758e-20)
(-0.0403227 0.0704421 2.06301e-19)
(-0.0215037 0.0732983 2.30394e-19)
(0.0154601 0.0701666 1.24002e-19)
(0.0714541 0.064177 4.26191e-20)
(0.148301 0.0575385 1.01892e-19)
(0.248433 0.052506 -1.67617e-19)
(0.372266 0.0483897 2.76503e-19)
(0.518625 0.0506384 -1.75567e-19)
(0.676472 0.0489783 -1.4823e-19)
(0.847893 0.0576546 -5.18346e-20)
(0.973305 0.052312 -2.3563e-19)
(1.16185 0.0613928 -4.97889e-19)
(-0.0219256 0.0267211 2.89691e-19)
(-0.0411074 0.0544565 3.751e-19)
(-0.0385264 0.0664131 2.82615e-19)
(-0.0150919 0.0681087 -2.52689e-19)
(0.0289847 0.064332 -4.54054e-20)
(0.0950105 0.0582962 -4.20435e-21)
(0.185197 0.0524005 1.83169e-19)
(0.301508 0.0489829 3.30361e-19)
(0.442966 0.0478025 -1.92937e-19)
(0.603836 0.0521685 9.02297e-20)
(0.771684 0.0551882 -2.68683e-19)
(0.937665 0.0631273 1.26068e-19)
(1.0622 0.0609738 3.30457e-19)
(1.217 0.0677312 -8.38408e-20)
(-0.0228913 0.0259928 -3.95967e-19)
(-0.0414504 0.0518163 2.21248e-19)
(-0.0358905 0.0621497 -2.77878e-19)
(-0.00700366 0.06268 5.80869e-20)
(0.0454157 0.0584009 -8.331e-20)
(0.123126 0.0526473 1.43106e-19)
(0.228493 0.0480479 -2.29769e-19)
(0.362308 0.04692 2.76995e-20)
(0.520836 0.0493093 1.9653e-19)
(0.693308 0.0561207 -3.80025e-19)
(0.86465 0.0630668 3.00185e-19)
(1.02049 0.0698386 -2.55207e-19)
(1.13716 0.0699327 1.71184e-20)
(1.25848 0.0732518 6.04554e-19)
(-0.0238518 0.0252686 -3.42515e-19)
(-0.0413997 0.0490533 -3.78841e-19)
(-0.0322001 0.0577163 -3.38104e-19)
(0.00314089 0.0571301 -1.56822e-19)
(0.0653233 0.0525632 -2.84388e-19)
(0.156501 0.0475147 -3.91641e-19)
(0.278731 0.0448599 -1.65393e-19)
(0.430604 0.0467187 -6.94091e-20)
(0.604189 0.0530392 -4.99738e-19)
(0.783721 0.0623294 1.26967e-19)
(0.951793 0.0720298 5.3156e-21)
(1.09356 0.077191 2.68827e-19)
(1.19732 0.0787234 -1.99986e-19)
(1.28795 0.0776775 6.78698e-20)
(-0.0247833 0.0245372 3.4376e-19)
(-0.0408519 0.0461805 2.30399e-19)
(-0.0272243 0.053172 6.21901e-19)
(0.0157347 0.0515772 -6.33171e-20)
(0.0892641 0.0470178 1.45546e-19)
(0.195721 0.0431981 -1.71908e-19)
(0.3361 0.0432028 2.59729e-19)
(0.505471 0.0486693 -1.83797e-20)
(0.690582 0.0589221 4.4229e-20)
(0.871547 0.0703496 1.82837e-19)
(1.03033 0.0814693 -8.79516e-20)
(1.15539 0.0847175 -2.926e-19)
(1.24324 0.0870837 -3.10677e-20)
(1.30749 0.0807747 -4.79878e-19)
(-0.0256526 0.0237813 -4.5532e-19)
(-0.0396929 0.0432051 3.46548e-19)
(-0.0207213 0.0485705 -5.41982e-19)
(0.0311727 0.0461402 5.33352e-19)
(0.117752 0.0419723 6.77818e-20)
(0.241193 0.0400055 -4.17455e-20)
(0.400328 0.0433963 -4.15991e-19)
(0.585278 0.0528879 -2.93385e-19)
(0.777116 0.0666812 2.84128e-19)
(0.953654 0.0795899 7.5956e-20)
(1.0986 0.0908558 7.12899e-20)
(1.20569 0.0921697 4.79907e-19)
(1.27644 0.0947225 -2.92258e-19)
(1.31926 0.0822547 3.79409e-20)
(-0.0264186 0.0229807 -3.76105e-20)
(-0.0377976 0.040129 -3.16879e-19)
(-0.0124426 0.043961 5.98274e-19)
(0.0498398 0.0409386 -1.89267e-19)
(0.151229 0.037643 -1.08964e-19)
(0.293072 0.0382416 5.29442e-19)
(0.470608 0.04567 -7.30953e-20)
(0.667817 0.0592813 3.9053e-19)
(0.860862 0.0758817 -3.00133e-19)
(1.02773 0.0894463 -8.86955e-20)
(1.15599 0.0998279 -8.38898e-20)
(1.24509 0.0994246 -4.09998e-19)
(1.2991 0.101047 2.11057e-19)
(1.32595 0.0821226 -2.96767e-20)
(-0.0270403 0.0221201 1.63963e-19)
(-0.0350255 0.0369448 -2.06775e-19)
(-0.00213651 0.0393899 6.34711e-20)
(0.0720997 0.0360961 1.45774e-19)
(0.190028 0.0342569 1.4301e-19)
(0.351189 0.0381874 -3.64756e-19)
(0.545588 0.0501167 1.91395e-19)
(0.750565 0.067561 2.03263e-20)
(0.939286 0.0860199 3.36649e-19)
(1.09244 0.0994032 1.16726e-20)
(1.20279 0.108212 1.96601e-19)
(1.27469 0.106263 2.89691e-19)
(1.31375 0.105574 4.42298e-21)
(1.33409 0.0882289 4.52142e-19)
(-0.0274736 0.0211803 -1.53104e-19)
(-0.0312307 0.0336427 3.15635e-19)
(0.010449 0.0349064 3.11898e-19)
(0.0982827 0.0317444 -2.57147e-19)
(0.234337 0.0320509 -2.65736e-19)
(0.414988 0.0400672 -1.96559e-19)
(0.623462 0.0566639 1.46527e-19)
(0.831029 0.077305 1.09867e-19)
(1.01053 0.0966123 8.34916e-20)
(1.14735 0.109089 -1.09119e-19)
(1.23981 0.11595 6.77175e-20)
(1.29597 0.112378 -1.04029e-19)
(1.32344 0.110083 2.20926e-19)
(1.3367 0.0921893 -8.69882e-21)
(-0.0276632 0.020138 4.44199e-19)
(-0.0262663 0.0302204 -2.41604e-19)
(0.0255606 0.030565 3.13886e-19)
(0.128672 0.0280295 -5.29381e-20)
(0.284151 0.0312655 6.91666e-20)
(0.483511 0.0440093 4.07989e-19)
(0.702157 0.0650801 2.06782e-19)
(0.907051 0.088043 4.24925e-20)
(1.07349 0.107257 -2.42494e-19)
(1.19273 0.118278 1.26563e-19)
(1.2682 0.122998 3.87208e-20)
(1.31069 0.117955 -1.1701e-19)
(1.32872 0.11403 -2.23082e-20)
(1.33646 0.0963983 -4.63018e-19)
(-0.0275488 0.0189733 2.554e-19)
(-0.0199812 0.0266816 8.9628e-20)
(0.0434364 0.0264296 -7.33454e-19)
(0.163485 0.0251174 -3.15698e-20)
(0.339223 0.0321277 2.99129e-19)
(0.555425 0.0500136 4.31413e-20)
(0.779578 0.0750185 -1.9499e-19)
(0.977005 0.0993309 4.10738e-20)
(1.12778 0.117661 -1.69452e-19)
(1.2293 0.126852 -1.43321e-20)
(1.2893 0.129409 -1.02568e-19)
(1.32019 0.123014 -5.3267e-20)
(1.33088 0.117775 -2.67916e-19)
(1.33448 0.100226 2.68003e-20)
(-0.0270678 0.0176721 1.05622e-19)
(-0.01222 0.0230382 1.57443e-19)
(0.0643016 0.0225792 5.0271e-19)
(0.202854 0.023198 4.74309e-19)
(0.399031 0.0348218 -4.29156e-19)
(0.629134 0.0579438 -5.00486e-19)
(0.853843 0.0860819 -1.98778e-19)
(1.03987 0.110798 -2.18937e-19)
(1.17353 0.127631 7.19067e-20)
(1.25804 0.134778 -1.30257e-19)
(1.30437 0.135247 -1.13928e-19)
(1.32572 0.127678 -1.19432e-20)
(1.33078 0.121306 -1.52836e-19)
(1.33113 0.103959 3.82896e-19)
(-0.0261547 0.0162262 -3.95505e-19)
(-0.00282624 0.0193139 5.21438e-19)
(0.088363 0.019113 -3.73538e-19)
(0.246789 0.0224819 -3.42965e-19)
(0.462766 0.0394547 -8.77875e-20)
(0.702937 0.0675514 4.44818e-19)
(0.923447 0.0978828 -1.76084e-19)
(1.09516 0.122163 -1.0582e-19)
(1.21129 0.137062 8.2148e-20)
(1.28003 0.142079 2.45636e-19)
(1.3146 0.140606 6.52102e-20)
(1.32825 0.132035 -1.26239e-19)
(1.32906 0.124725 8.0167e-20)
(1.32701 0.10759 -8.52085e-20)
(-0.0247424 0.0146343 6.33633e-19)
(0.00835621 0.0155471 -5.06662e-19)
(0.115801 0.0161566 3.61798e-19)
(0.295153 0.0231883 -9.00291e-20)
(0.529362 0.0460299 1.79319e-19)
(0.775201 0.0785218 1.43631e-19)
(0.987331 0.110083 5.32426e-22)
(1.14287 0.133231 -1.29343e-19)
(1.2418 0.145915 -8.29637e-20)
(1.29634 0.148815 1.4655e-19)
(1.32102 0.145578 8.07153e-20)
(1.32858 0.136173 1.62795e-19)
(1.32622 0.128072 3.78336e-19)
(1.32236 0.111186 -2.05113e-19)
(-0.0227623 0.0129027 -5.46968e-19)
(0.0214806 0.0117927 4.0984e-19)
(0.146755 0.0138652 5.66302e-20)
(0.347623 0.0255193 2.32899e-19)
(0.597574 0.0544439 -1.63033e-20)
(0.844506 0.0905246 7.67185e-20)
(1.04487 0.122412 3.88953e-19)
(1.18329 0.143883 2.35971e-19)
(1.26593 0.154198 1.2667e-19)
(1.30798 0.155063 -5.01597e-19)
(1.32449 0.150254 -1.0059e-19)
(1.3273 0.140166 -9.1899e-20)
(1.32261 0.131393 7.74419e-21)
(1.3174 0.114766 -8.60973e-21)
(-0.0201454 0.0110449 1.37123e-19)
(0.0366947 0.00812432 -6.8065e-19)
(0.181309 0.012425 -2.02336e-19)
(0.40368 0.0296296 1.5981e-19)
(0.666089 0.0645059 -1.59857e-19)
(0.90973 0.103252 -9.46557e-21)
(1.09583 0.134667 1.76749e-19)
(1.21695 0.154057 -2.50707e-19)
(1.28455 0.161951 -2.69536e-19)
(1.31585 0.160906 1.9734e-19)
(1.32571 0.154716 2.38086e-20)
(1.32486 0.144072 1.88229e-19)
(1.31847 0.134716 -6.3609e-20)
(1.31223 0.118353 2.06382e-19)
(-0.016823 0.00908186 -2.55948e-19)
(0.0541374 0.0046358 6.03581e-19)
(0.219467 0.0120474 -2.32154e-19)
(0.462618 0.035599 -3.28622e-19)
(0.733636 0.0759738 3.44388e-20)
(0.97008 0.116439 -2.11227e-21)
(1.14026 0.146705 1.81729e-19)
(1.24448 0.163734 3.03381e-19)
(1.29852 0.169232 4.40436e-19)
(1.32069 0.166428 -1.08478e-20)
(1.32523 0.159033 1.24412e-20)
(1.3216 0.147936 -2.39885e-19)
(1.31397 0.138061 -1.34172e-19)
(1.30695 0.121957 -8.5673e-20)
(-0.0127273 0.00704187 1.86729e-19)
(0.0739333 0.0014425 1.28746e-19)
(0.26113 0.0129556 3.13619e-19)
(0.523579 0.0434201 3.59364e-19)
(0.799082 0.0885911 -4.42896e-20)
(1.02507 0.129872 7.33421e-20)
(1.17843 0.158437 -2.20297e-19)
(1.26659 0.172929 2.42627e-19)
(1.30861 0.176111 -6.23399e-20)
(1.32316 0.171708 -2.05936e-19)
(1.32349 0.163265 1.05299e-19)
(1.31775 0.151791 -9.55129e-20)
(1.30922 0.14144 1.54312e-19)
(1.30159 0.125583 1.19139e-19)
(-0.00779203 0.00495976 -1.64785e-20)
(0.0961864 -0.00131738 -2.45003e-19)
(0.306082 0.0153639 -2.99017e-19)
(0.585617 0.0530049 -9.97269e-20)
(0.861493 0.102114 1.58968e-19)
(1.07448 0.143387 -3.49847e-20)
(1.21075 0.169811 -1.05433e-19)
(1.28397 0.181678 1.03e-19)
(1.3155 0.18266 3.70004e-19)
(1.32377 0.176814 3.20682e-19)
(1.3208 0.167458 -1.15278e-19)
(1.31349 0.15566 7.61517e-20)
(1.30429 0.144862 -7.16462e-20)
(1.29619 0.129233 -1.14996e-19)
(-0.00195358 0.00287694 -1.11797e-19)
(0.12097 -0.00348279 -3.20504e-19)
(0.353978 0.0194529 3.60791e-19)
(0.647762 0.0642067 -9.46978e-20)
(0.920159 0.116327 1.1099e-20)
(1.11831 0.15686 7.89821e-21)
(1.23771 0.180809 2.71424e-20)
(1.29728 0.190029 -3.0311e-19)
(1.31979 0.188948 9.74957e-20)
(1.32294 0.181806 2.03044e-19)
(1.3174 0.171646 -1.93508e-19)
(1.30891 0.159558 1.44315e-19)
(1.29923 0.148329 6.81393e-20)
(1.29074 0.132907 3.56332e-20)
(0.0048488 0.000841467 2.48196e-20)
(0.148318 -0.00487163 1.44046e-19)
(0.404352 0.025348 2.44855e-19)
(0.709093 0.0768472 -4.80879e-20)
(0.974589 0.131047 2.10207e-19)
(1.15672 0.170207 9.44117e-20)
(1.25984 0.191435 2.40193e-19)
(1.30713 0.198038 2.34145e-19)
(1.32198 0.195041 -2.81978e-19)
(1.32099 0.186732 -2.13864e-19)
(1.31348 0.175856 -2.45676e-19)
(1.3041 0.163494 -1.15887e-19)
(1.29406 0.151841 5.19851e-20)
(1.28526 0.136601 1.06627e-19)
(0.012672 -0.00109152 3.77215e-20)
(0.17821 -0.00528593 6.15443e-20)
(0.45664 0.0331082 -6.21566e-19)
(0.76878 0.09074 2.1936e-19)
(1.02449 0.146127 -1.86188e-19)
(1.18995 0.18337 -9.63016e-20)
(1.27768 0.201708 -1.34154e-19)
(1.31406 0.205764 -7.95881e-20)
(1.32247 0.200996 -1.93249e-19)
(1.31817 0.19163 3.53493e-19)
(1.30915 0.180104 5.56074e-20)
(1.2991 0.16747 1.07585e-19)
(1.28879 0.155395 -1.37879e-19)
(1.27975 0.140311 2.45928e-20)
(0.0215677 -0.00285904 4.94436e-20)
(0.210566 -0.00452066 -1.06663e-19)
(0.510205 0.0427266 2.12267e-19)
(0.826122 0.105707 -1.97482e-19)
(1.06972 0.161445 -2.80038e-19)
(1.21835 0.196314 -1.57777e-19)
(1.29174 0.211661 -2.26494e-19)
(1.31855 0.213262 1.11123e-19)
(1.32159 0.20686 7.22041e-20)
(1.31467 0.196529 -1.78108e-19)
(1.30449 0.184401 1.64098e-20)
(1.29394 0.171487 -8.58933e-20)
(1.28343 0.158987 5.6559e-20)
(1.27419 0.144032 -9.2418e-20)
(0.0315812 -0.00438956 -2.24608e-19)
(0.245235 -0.00237616 1.6622e-19)
(0.564376 0.0541412 -1.32572e-19)
(0.880562 0.121585 2.34178e-20)
(1.11029 0.176907 3.82598e-19)
(1.24229 0.209025 1.11863e-19)
(1.3025 0.221329 3.80727e-19)
(1.321 0.220586 -1.58919e-19)
(1.31962 0.212675 2.5494e-20)
(1.31063 0.20145 1.94298e-19)
(1.29957 0.188751 -8.94735e-20)
(1.28863 0.175541 -1.2878e-20)
(1.27798 0.162611 -5.54546e-20)
(1.26858 0.147758 1.17474e-20)
(0.042748 -0.00560262 2.05301e-19)
(0.281998 0.00132793 2.68907e-20)
(0.618486 0.0672508 9.10391e-20)
(0.931679 0.138231 -9.0236e-20)
(1.14629 0.192438 -7.92024e-20)
(1.26216 0.221499 -1.37946e-19)
(1.31039 0.230754 9.97949e-20)
(1.32175 0.227781 1.46389e-19)
(1.31675 0.218472 -7.45223e-20)
(1.30614 0.206406 -8.88865e-20)
(1.29442 0.193154 8.94469e-20)
(1.28319 0.179627 4.20009e-20)
(1.27244 0.166261 -1.42531e-19)
(1.26291 0.151483 -7.80968e-20)
(0.055091 -0.00640907 1.00717e-19)
(0.320571 0.00673963 -1.91599e-19)
(0.671896 0.081931 2.43491e-19)
(0.979183 0.155519 7.2088e-20)
(1.17788 0.207979 -1.79175e-20)
(1.27833 0.233744 -1.18674e-19)
(1.31581 0.239976 -2.53141e-19)
(1.32107 0.234889 -1.80666e-19)
(1.31315 0.224273 1.78172e-19)
(1.30128 0.211404 -9.32314e-20)
(1.28907 0.197608 6.58116e-20)
(1.27761 0.183738 -8.73096e-20)
(1.2668 0.169929 9.38242e-20)
(1.25717 0.155198 -2.62678e-20)
(0.0686162 -0.00671235 -1.86673e-19)
(0.360612 0.0139652 -2.58256e-19)
(0.724022 0.0980458 2.77418e-20)
(1.02289 0.173341 4.46782e-20)
(1.20528 0.223485 9.81342e-20)
(1.29119 0.245771 -4.25844e-20)
(1.31909 0.249031 -3.91496e-20)
(1.31921 0.241941 1.80713e-19)
(1.30894 0.230094 1.01274e-20)
(1.29609 0.216446 -5.50048e-20)
(1.28351 0.202106 -6.03628e-20)
(1.2719 0.187866 3.12452e-20)
(1.26105 0.173608 1.04598e-19)
(1.25136 0.158897 6.18114e-20)
(0.0833095 -0.00641081 -8.96147e-22)
(0.401736 0.0230649 2.89264e-19)
(0.774348 0.115456 1.22409e-19)
(1.06272 0.191599 -1.41669e-19)
(1.22872 0.238921 9.38751e-20)
(1.30107 0.257597 7.95121e-20)
(1.32052 0.257953 6.59735e-20)
(1.31634 0.248962 -1.58493e-19)
(1.30419 0.235944 -7.90123e-20)
(1.29061 0.22153 6.37727e-20)
(1.27776 0.206639 7.78352e-21)
(1.26604 0.192001 -4.04898e-20)
(1.25519 0.177289 -5.40763e-20)
(1.24546 0.16257 -1.51848e-20)
(0.099133 -0.00540118 4.95111e-20)
(0.443532 0.0340539 -2.20237e-20)
(0.822436 0.134022 -2.40985e-19)
(1.09864 0.210208 -8.92291e-20)
(1.24847 0.254259 -2.02888e-19)
(1.30829 0.269238 5.16926e-20)
(1.32036 0.26677 2.44473e-20)
(1.31261 0.25597 5.9637e-20)
(1.29898 0.241825 -3.00876e-20)
(1.28485 0.226651 4.59166e-20)
(1.27181 0.211197 -1.83503e-20)
(1.26003 0.196133 2.33796e-20)
(1.24922 0.180963 -2.0639e-21)
(1.23946 0.166209 -3.4077e-20)
(0.116024 -0.00358283 8.75944e-20)
(0.485574 0.0469067 -1.53529e-19)
(0.867927 0.153611 1.82859e-20)
(1.13071 0.229088 1.22838e-19)
(1.26476 0.269478 1.64316e-19)
(1.31314 0.280712 -1.16972e-19)
(1.31881 0.275505 7.19106e-20)
(1.30813 0.262976 1.13944e-20)
(1.29335 0.247737 -3.35931e-20)
(1.27882 0.231798 -3.5953e-20)
(1.26567 0.215768 4.49257e-20)
(1.25386 0.200252 4.68318e-20)
(1.24312 0.184621 -1.40463e-20)
(1.23337 0.169805 3.54745e-20)
(0.133893 -0.000862383 7.43793e-20)
(0.527435 0.0615641 5.62364e-20)
(0.910539 0.174091 1.2023e-19)
(1.15899 0.248166 -4.81627e-20)
(1.27787 0.284561 -6.7355e-20)
(1.31586 0.292031 7.23462e-20)
(1.31604 0.284174 -7.85481e-20)
(1.30299 0.269984 -8.61829e-20)
(1.28734 0.253672 5.74666e-20)
(1.27253 0.236961 -3.74738e-20)
(1.25932 0.22034 -5.96197e-20)
(1.24754 0.204346 -4.77849e-20)
(1.23689 0.188252 3.32742e-20)
(1.22716 0.173348 -6.96112e-21)
(0.152628 0.0028418 -9.54994e-20)
(0.568701 0.0779397 4.44428e-20)
(0.950061 0.195337 -8.53621e-20)
(1.1836 0.267372 -1.86108e-20)
(1.28803 0.299491 7.80026e-20)
(1.31668 0.303206 4.8729e-21)
(1.3122 0.292786 -4.49137e-21)
(1.29724 0.276994 3.54441e-20)
(1.28095 0.259621 -3.7413e-20)
(1.26598 0.242126 3.96617e-20)
(1.25277 0.224898 3.17495e-20)
(1.24105 0.208404 3.60809e-20)
(1.23052 0.191845 -8.82079e-21)
(1.22084 0.176828 -7.25303e-21)
(0.172094 0.00759583 5.47455e-21)
(0.60898 0.0959259 2.87479e-20)
(0.986344 0.217227 -5.02535e-20)
(1.20467 0.28664 -1.17683e-20)
(1.29548 0.314253 -1.36549e-20)
(1.3158 0.314245 -9.26059e-21)
(1.3074 0.301347 -1.34602e-20)
(1.29095 0.283997 -2.8922e-20)
(1.2742 0.265569 1.62997e-20)
(1.25915 0.247278 1.89161e-20)
(1.246 0.229427 -3.57769e-21)
(1.23438 0.212412 -1.84353e-21)
(1.22402 0.195389 -2.3999e-20)
(1.21441 0.180234 1.23345e-20)
(0.192137 0.0134477 4.54968e-21)
(0.647909 0.115399 -1.14436e-20)
(1.01929 0.239646 2.84364e-20)
(1.22234 0.305904 1.96349e-20)
(1.30041 0.328832 -6.93045e-21)
(1.31339 0.325149 -1.28561e-21)
(1.30172 0.309852 9.44332e-21)
(1.28413 0.290984 1.4463e-21)
(1.26711 0.271501 -2.75862e-21)
(1.25206 0.252401 -1.22208e-20)
(1.23902 0.233911 -3.52653e-22)
(1.22754 0.216358 -7.97467e-22)
(1.21737 0.198873 9.09535e-21)
(1.20786 0.183555 4.47734e-21)
(0.212587 0.0204256 3.83284e-21)
(0.685157 0.136222 -8.9308e-21)
(1.04886 0.262478 2.62474e-20)
(1.23677 0.325103 1.92685e-20)
(1.30304 0.343211 -5.66451e-21)
(1.30958 0.335915 -1.64416e-21)
(1.29525 0.318296 7.62423e-21)
(1.27683 0.29794 2.3045e-21)
(1.25966 0.277398 -2.86401e-21)
(1.2447 0.257476 -1.06971e-20)
(1.23181 0.238335 3.04897e-23)
(1.22052 0.220229 -1.39939e-22)
(1.21057 0.202283 7.18448e-21)
(1.20119 0.18678 3.47819e-21)
(0.233264 0.0285382 -1.20449e-21)
(0.720434 0.158248 2.80213e-20)
(1.07503 0.285614 -4.72237e-20)
(1.24811 0.344174 -1.61575e-20)
(1.30354 0.357372 -3.78672e-21)
(1.30449 0.346537 -1.31185e-20)
(1.28803 0.326664 -1.36348e-20)
(1.26904 0.304844 -2.61498e-20)
(1.25186 0.283241 1.67708e-20)
(1.23705 0.262485 2.03335e-20)
(1.22437 0.242681 -6.7704e-21)
(1.21331 0.224011 -6.97406e-22)
(1.20361 0.205606 -1.57495e-20)
(1.1944 0.189899 5.87542e-21)
(0.253981 0.0377749 -9.83925e-20)
(0.753486 0.181324 4.94304e-20)
(1.09783 0.308945 -9.49804e-20)
(1.25652 0.363058 -1.25432e-20)
(1.30206 0.371293 8.7646e-20)
(1.29824 0.357001 -1.1049e-20)
(1.28012 0.33494 1.26348e-21)
(1.26079 0.311677 2.79643e-20)
(1.24371 0.289007 -2.54426e-20)
(1.22912 0.267408 2.54785e-20)
(1.2167 0.246931 2.56297e-20)
(1.20591 0.22769 2.23454e-20)
(1.19651 0.208826 -7.08734e-21)
(1.1875 0.192901 -9.34592e-21)
(0.274546 0.0481076 5.62411e-20)
(0.784101 0.205291 5.51769e-20)
(1.11729 0.332364 1.16294e-19)
(1.26214 0.381696 -2.25982e-20)
(1.29876 0.38495 -8.53698e-20)
(1.2909 0.367292 7.59098e-20)
(1.27154 0.343103 -6.50391e-20)
(1.25208 0.318414 -6.60222e-20)
(1.2352 0.294673 4.74009e-20)
(1.22091 0.272225 -3.15264e-20)
(1.20879 0.25107 -4.23411e-20)
(1.19832 0.231251 -3.53121e-20)
(1.18925 0.211927 2.30053e-20)
(1.18047 0.195771 -1.60123e-21)
(0.294768 0.0594927 7.05911e-20)
(0.812106 0.229987 -1.42437e-19)
(1.13348 0.355765 -2.25999e-21)
(1.26514 0.400031 1.2746e-19)
(1.29376 0.398317 1.27225e-19)
(1.28255 0.377387 -6.48846e-20)
(1.26234 0.351128 4.10993e-20)
(1.24292 0.325028 2.37651e-20)
(1.22635 0.300215 -3.07259e-20)
(1.21241 0.276913 -2.44931e-20)
(1.20065 0.255079 2.6203e-20)
(1.19053 0.234679 2.80693e-20)
(1.18184 0.214898 -1.15003e-20)
(1.17329 0.198493 1.59386e-20)
(0.314458 0.0718726 5.97092e-20)
(0.837365 0.255246 -2.6097e-20)
(1.14648 0.379042 -2.21128e-19)
(1.26565 0.418005 -8.07834e-20)
(1.28718 0.411365 -2.06771e-19)
(1.27326 0.387261 5.34226e-20)
(1.25252 0.358986 2.60764e-20)
(1.23331 0.331492 3.34163e-20)
(1.21714 0.305608 3.15868e-21)
(1.20362 0.281454 2.97151e-20)
(1.19227 0.258939 -1.39947e-20)
(1.18256 0.237959 -2.73718e-21)
(1.17429 0.217738 2.01518e-21)
(1.16593 0.201069 -1.30315e-20)
(0.333436 0.0851772 -3.28861e-21)
(0.85978 0.280906 3.34335e-19)
(1.15637 0.402092 8.92958e-20)
(1.26381 0.435562 -9.56763e-20)
(1.27913 0.42406 4.55175e-20)
(1.26307 0.396886 8.04633e-20)
(1.2421 0.366648 2.60919e-20)
(1.22326 0.337777 -8.78355e-20)
(1.20757 0.310826 -5.78892e-20)
(1.19455 0.285823 5.76594e-20)
(1.18365 0.262631 -4.16961e-21)
(1.1744 0.241066 -2.00781e-20)
(1.16663 0.22045 -1.91156e-20)
(1.15841 0.203523 -6.50502e-21)
(0.351527 0.0993253 -1.6543e-19)
(0.879283 0.306804 -3.17868e-19)
(1.16325 0.424812 8.92e-21)
(1.25975 0.452645 1.15705e-19)
(1.2697 0.436369 5.10601e-20)