# Probe 0 (2.5 0.5 0.005)
# Probe 1 (2.5 -0.5 0.005)
# Probe 2 (4 0.5 0.005)
# Probe 3 (4 -0.5 0.005)
# Probe 4 (5.5 0.5 0.005)
# Probe 5 (5.5 -0.5 0.005)
#       Probe             0             1             2             3             4             5
#        Time
        0.005      -8.47757      -8.47921      -3.03064      -3.03123     -0.652167     -0.652307
         0.01      0.413643      0.415467      0.154524      0.155368     0.0246953       0.02489
        0.015     -0.144923     -0.145228    -0.0592876    -0.0594672     -0.012063    -0.0121055
         0.02     -0.125526     -0.125625    -0.0493496    -0.0494214    -0.0104056    -0.0104218
        0.025     -0.109028     -0.109064    -0.0428414    -0.0428756   -0.00918976   -0.00919711
         0.03    -0.0953948    -0.0954054    -0.0376043    -0.0376222   -0.00815611   -0.00815958
        0.035     -0.084018      -0.08402    -0.0332875    -0.0332981   -0.00728167   -0.00728357
         0.04    -0.0743804    -0.0743721    -0.0296585    -0.0296626   -0.00653281   -0.00653318
        0.045    -0.0661106    -0.0660972    -0.0265363    -0.0265369   -0.00588226   -0.00588184
         0.05    -0.0589316     -0.058917    -0.0238232     -0.023822    -0.0053117   -0.00531093
        0.055    -0.0526627    -0.0526468      -0.02145    -0.0214475   -0.00480831   -0.00480729
         0.06    -0.0471594    -0.0471437    -0.0193677    -0.0193646   -0.00436272   -0.00436157
        0.065    -0.0422993    -0.0422824    -0.0175254    -0.0175212   -0.00396569   -0.00396432
         0.07     -0.037987    -0.0379702    -0.0158813    -0.0158761    -0.0036114   -0.00360993
        0.075    -0.0341413    -0.0341245    -0.0144523     -0.014447   -0.00329678    -0.0032953
         0.08    -0.0306946    -0.0306789    -0.0131613    -0.0131557   -0.00301502   -0.00301362
        0.085    -0.0275955    -0.0275808    -0.0119992    -0.0119947   -0.00275718   -0.00275583
         0.09    -0.0247988    -0.0247849    -0.0109253    -0.0109209   -0.00252172   -0.00252044
        0.095    -0.0222714    -0.0222579   -0.00995272   -0.00994821    -0.0023079   -0.00230664
          0.1     -0.019976    -0.0199639   -0.00906697   -0.00906289   -0.00211273    -0.0021116
        0.105    -0.0178872    -0.0178758   -0.00826279   -0.00825887   -0.00193509   -0.00193402
         0.11    -0.0159811    -0.0159702   -0.00752711   -0.00752331   -0.00177248   -0.00177144
        0.115    -0.0142379    -0.0142273   -0.00685425   -0.00685043   -0.00162297   -0.00162196
         0.12    -0.0126425    -0.0126325   -0.00624108   -0.00623751   -0.00148598   -0.00148503
        0.125    -0.0111767    -0.0111677   -0.00567381   -0.00567057   -0.00135975   -0.00135889
         0.13   -0.00982353   -0.00981509   -0.00514784   -0.00514481   -0.00124286   -0.00124206
        0.135   -0.00857632   -0.00856849   -0.00466442   -0.00466159   -0.00113514   -0.00113439
         0.14   -0.00742422   -0.00741671   -0.00421618   -0.00421345   -0.00103533   -0.00103461
        0.145   -0.00635773   -0.00635065   -0.00380073   -0.00379815   -0.00094279  -0.000942112
         0.15   -0.00537008   -0.00536323   -0.00341579   -0.00341327  -0.000856998  -0.000856337
        0.155   -0.00445305   -0.00444663   -0.00305825   -0.00305589  -0.000777276  -0.000776658
         0.16   -0.00360209   -0.00359603   -0.00272663   -0.00272439   -0.00070327  -0.000702686
        0.165   -0.00281071   -0.00280508   -0.00241802   -0.00241594  -0.000634385  -0.000633843
         0.17   -0.00207443   -0.00206914   -0.00213085   -0.00212889  -0.000570262  -0.000569753
        0.175   -0.00138821    -0.0013835    -0.0018632   -0.00186148  -0.000510476   -0.00051003
         0.18  -0.000750735  -0.000746586   -0.00161444   -0.00161296   -0.00045488  -0.000454496
        0.185  -0.000154664   -0.00015079   -0.00138195   -0.00138056  -0.000402914  -0.000402556
         0.19   0.000401952   0.000406064   -0.00116491   -0.00116338  -0.000354399  -0.000354004
        0.195   0.000923796   0.000927449  -0.000961731  -0.000960387  -0.000308958  -0.000308613
          0.2    0.00141185    0.00141542  -0.000771767  -0.000770437  -0.000266474  -0.000266133
        0.205    0.00186915    0.00187249  -0.000593929  -0.000592685  -0.000226694  -0.000226375
         0.21    0.00229862    0.00230185  -0.000427161  -0.000425943  -0.000189386  -0.000189073
        0.215    0.00269988    0.00270291  -0.000271114  -0.000269969  -0.000154485  -0.000154191
         0.22    0.00307756    0.00308038  -0.000123368  -0.000122311  -0.000121608  -0.000121334
        0.225    0.00343208    0.00343464   1.20157e-05    1.2973e-05  -9.09789e-05  -9.07335e-05
         0.23    0.00376862    0.00377108   0.000142112   0.000143041  -6.18212e-05  -6.15839e-05
        0.235    0.00408151     0.0040839   0.000263296   0.000264202  -3.44975e-05  -3.42652e-05
         0.24    0.00437829    0.00438058   0.000377346   0.000378225  -9.31053e-06  -9.08587e-06
        0.245    0.00465869    0.00466091   0.000485199   0.000486063   1.48632e-05   1.50835e-05
         0.25    0.00492357    0.00492573   0.000586804   0.000587649   3.77105e-05   3.79257e-05
        0.255    0.00517401    0.00517599   0.000682282    0.00068308   5.94301e-05   5.96378e-05
         0.26    0.00541191    0.00541365   0.000773193    0.00077382   8.15674e-05   8.17308e-05
        0.265    0.00563693    0.00563875   0.000859059   0.000859768   9.80288e-05   9.82058e-05
         0.27    0.00585209    0.00585384   0.000940289   0.000940979   0.000116242   0.000116417
        0.275     0.0060569    0.00605836    0.00101711    0.00101768   0.000133578   0.000133719
         0.28    0.00624885    0.00625011    0.00108857    0.00108902   0.000149782     0.0001499
        0.285    0.00643369    0.00643497    0.00115674     0.0011572   0.000165329   0.000165453
         0.29     0.0066056    0.00660673    0.00121895    0.00121928    0.00017985   0.000179952
        0.295    0.00677098    0.00677216    0.00127157    0.00127145   0.000193564    0.00019369
          0.3    0.00693083    0.00693185    0.00133252    0.00133374   0.000206862    0.00020696
        0.305    0.00708361    0.00708468    0.00140161    0.00140198   0.000219691   0.000219789
         0.31    0.00722889     0.0072302    0.00145639    0.00145687   0.000231873   0.000232004
        0.315    0.00736867    0.00736983    0.00150767    0.00150812   0.000243389   0.000243506
         0.32    0.00750291    0.00750407      0.001556    0.00155647   0.000254334   0.000254448
        0.325    0.00763112    0.00763206     0.0016046    0.00160496   0.000264943   0.000265031
         0.33    0.00775469     0.0077554    0.00165084    0.00165108   0.000275089   0.000275163
        0.335    0.00787488    0.00787568    0.00169457    0.00169488   0.000284831   0.000284903
         0.34    0.00798955     0.0079904    0.00173613    0.00173646   0.000294076   0.000294157
        0.345    0.00809994    0.00810084    0.00177596    0.00177632   0.000302934    0.00030302
         0.35    0.00820455    0.00820558     0.0018136    0.00181403     0.0003113   0.000311408
        0.355    0.00830717    0.00830799    0.00185052    0.00185082    0.00031948   0.000319564
         0.36    0.00840424    0.00840498    0.00188551    0.00188576   0.000327224   0.000327299
        0.365    0.00849998    0.00850063    0.00191973    0.00191996   0.000334797   0.000334862
         0.37    0.00859266    0.00859332    0.00195272    0.00195297   0.000342086   0.000342147
        0.375    0.00868087    0.00868133    0.00198405    0.00198421   0.000349008   0.000349046
         0.38    0.00876784    0.00876839    0.00201479      0.002015    0.00035578   0.000355829
        0.385    0.00885076    0.00885134    0.00204398    0.00204421   0.000362217   0.000362269
         0.39     0.0089311    0.00893175    0.00207215    0.00207242   0.000368418   0.000368484
        0.395     0.0090078    0.00900855    0.00209888    0.00209922   0.000374304   0.000374381
          0.4     0.0090824    0.00908307    0.00212503    0.00212525   0.000380056   0.000380117
        0.405    0.00915698    0.00915758    0.00215126    0.00215142   0.000385814   0.000385868
         0.41    0.00922801    0.00922864    0.00217618    0.00217642    0.00039128   0.000391339
        0.415     0.0092986    0.00929914     0.0022009    0.00220107   0.000396681   0.000396734
         0.42    0.00936618    0.00936669     0.0022244    0.00222455   0.000401819   0.000401866
        0.425    0.00943315    0.00943371    0.00224754    0.00224776   0.000406877    0.00040693
         0.43    0.00949912    0.00949962    0.00227016    0.00227035   0.000411809   0.000411858
        0.435    0.00956171    0.00956226    0.00229143    0.00229164   0.000416447     0.0004165
         0.44    0.00962086    0.00962136    0.00231126    0.00231145   0.000420735   0.000420782
        0.445    0.00967883    0.00967935    0.00233042    0.00233062   0.000424596   0.000424668
         0.45    0.00973737     0.0097379    0.00235166    0.00235187   0.000429645   0.000429685
        0.455    0.00979469    0.00979513    0.00237147    0.00237164   0.000433963      0.000434
         0.46    0.00985077    0.00985104    0.00239029    0.00239038   0.000438056   0.000438073
        0.465    0.00990418    0.00990452    0.00240808    0.00240818   0.000441881    0.00044191
         0.47    0.00995668    0.00995714    0.00242528    0.00242548   0.000445325   0.000445365
        0.475     0.0100079     0.0100084    0.00244232    0.00244244   0.000449324   0.000449378
         0.48     0.0100599     0.0100602    0.00245976    0.00245979   0.000453591   0.000453605
        0.485     0.0101129     0.0101132    0.00247739    0.00247752    0.00045752   0.000457549
         0.49     0.0101604     0.0101608    0.00249292    0.00249309   0.000460946   0.000460982
        0.495     0.0102075      0.010208    0.00250813    0.00250827   0.000464291   0.000464333
          0.5     0.0102517     0.0102521    0.00252242    0.00252248   0.000467457   0.000467492
        0.505     0.0102999     0.0103003    0.00253778    0.00253795   0.000470871   0.000470916
         0.51     0.0103431     0.0103436    0.00255123     0.0025514    0.00047388   0.000473925
        0.515     0.0103888     0.0103893    0.00256501    0.00256518   0.000476939   0.000476987
         0.52     0.0104337      0.010434    0.00257793    0.00257797   0.000479904   0.000479926
        0.525     0.0104754     0.0104758     0.0025892    0.00258928   0.000483088   0.000483134
         0.53     0.0105199     0.0105203     0.0026038    0.00260384   0.000486492   0.000486512
        0.535     0.0105618     0.0105623    0.00261774    0.00261774    0.00048977   0.000489805
         0.54     0.0106019     0.0106024    0.00262736    0.00262737   0.000492578   0.000492622
        0.545     0.0106409     0.0106414    0.00263222    0.00263189   0.000495243   0.000495294
         0.55     0.0106822     0.0106827    0.00264169     0.0026424   0.000498077   0.000498117
        0.555     0.0107228     0.0107233    0.00267354    0.00267473   0.000501055   0.000501083
         0.56     0.0107629     0.0107632    0.00269501    0.00269508   0.000503871   0.000503896
        0.565     0.0108031     0.0108033    0.00270862    0.00270865   0.000506623   0.000506634
         0.57     0.0108414     0.0108416    0.00272099    0.00272101   0.000509231    0.00050924
        0.575     0.0108798     0.0108799    0.00273347    0.00273334   0.000511878   0.000511877
         0.58     0.0109223     0.0109226    0.00274701    0.00274713    0.00051476   0.000514788
        0.585     0.0109581     0.0109584    0.00275841    0.00275854   0.000517182   0.000517209
         0.59     0.0109908     0.0109911    0.00276875     0.0027689   0.000519372   0.000519405
        0.595     0.0110292     0.0110296    0.00278097    0.00278114   0.000521946   0.000521985
          0.6     0.0110607     0.0110611     0.0027909    0.00279106   0.000524038   0.000524073
        0.605     0.0111009     0.0111013    0.00280368    0.00280385   0.000526713   0.000526751
         0.61     0.0111358     0.0111362    0.00281469    0.00281485   0.000529013   0.000529046
        0.615     0.0111713     0.0111716    0.00282587    0.00282603   0.000531335   0.000531362
         0.62     0.0112061     0.0112064    0.00283672    0.00283682   0.000533536   0.000533553
        0.625     0.0112436     0.0112441    0.00284843    0.00284857   0.000536045   0.000536086
         0.63     0.0112785     0.0112791    0.00285948    0.00285961   0.000538455   0.000538507
        0.635     0.0113141     0.0113147     0.0028709    0.00287112   0.000540868   0.000540931
         0.64     0.0113492     0.0113496    0.00288214    0.00288227   0.000543191   0.000543226
        0.645     0.0113836     0.0113839    0.00289305    0.00289318   0.000545436   0.000545461
         0.65     0.0114187      0.011419    0.00290412    0.00290426   0.000547696   0.000547723
        0.655     0.0114559     0.0114563     0.0029159    0.00291603   0.000550104   0.000550131
         0.66     0.0114878     0.0114881    0.00292587      0.002926    0.00055213   0.000552154
        0.665     0.0115234     0.0115237    0.00293705    0.00293717   0.000554401   0.000554423
         0.67     0.0115584     0.0115587    0.00294801    0.00294813   0.000556616   0.000556636
        0.675     0.0115956      0.011596     0.0029596    0.00295976   0.000558947   0.000558974
         0.68     0.0116361     0.0116364     0.0029722    0.00297229   0.000561452   0.000561476
        0.685     0.0116686      0.011669    0.00298179    0.00298193   0.000563256   0.000563283
         0.69     0.0116974     0.0116977    0.00299145    0.00299158   0.000565231   0.000565252
        0.695     0.0117337     0.0117341     0.0030037     0.0030039   0.000567688   0.000567717
          0.7     0.0117667     0.0117671    0.00301421    0.00301449   0.000569343   0.000569367
        0.705      0.011799     0.0117994    0.00302389    0.00302392   0.000570716   0.000570757
         0.71     0.0118354     0.0118358    0.00303428    0.00303437   0.000574811   0.000574854
        0.715     0.0118752     0.0118756    0.00304665     0.0030468   0.000577443    0.00057748
         0.72     0.0119026     0.0119029    0.00305559    0.00305555   0.000579155   0.000579174
        0.725     0.0119384     0.0119388    0.00306718    0.00306742   0.000581389   0.000581431
         0.73     0.0119752     0.0119756    0.00307938    0.00307961   0.000583663   0.000583699
        0.735     0.0120123     0.0120127    0.00309184    0.00309208   0.000585925   0.000585959
         0.74       0.01205     0.0120503    0.00310478    0.00310506   0.000588196   0.000588225
        0.745     0.0120769     0.0120773    0.00311481    0.00311508   0.000589705   0.000589741
         0.75     0.0121134     0.0121141    0.00312877    0.00312921   0.000591924   0.000591993
        0.755      0.012151     0.0121517    0.00314598    0.00314676    0.00059419    0.00059427
         0.76     0.0121874     0.0121882    0.00316712    0.00316692   0.000596147   0.000596229
        0.765     0.0122248     0.0122255    0.00316552    0.00316561   0.000598164   0.000598237
         0.77      0.012263     0.0122635    0.00315996    0.00315999   0.000601432   0.000601463
        0.775     0.0123069     0.0123072    0.00317403    0.00317398   0.000604496   0.000604514
         0.78     0.0123376     0.0123379     0.0031826    0.00318264   0.000606276   0.000606296
        0.785     0.0123776      0.012378    0.00319392    0.00319409   0.000608624   0.000608643
         0.79      0.012424     0.0124241    0.00320966    0.00320946     0.0006117   0.000611665
        0.795     0.0124603     0.0124605    0.00322208    0.00322203   0.000614119   0.000614128
          0.8     0.0124858     0.0124859    0.00322938     0.0032294   0.000615602   0.000615603
        0.805      0.012526     0.0125264    0.00324145    0.00324161   0.000618061   0.000618096
         0.81     0.0125709     0.0125715    0.00325503    0.00325525   0.000620829   0.000620878
        0.815     0.0125987     0.0125993    0.00326305     0.0032633   0.000622433    0.00062249
         0.82     0.0126392     0.0126398    0.00327519    0.00327548   0.000624898   0.000624965
        0.825     0.0126829     0.0126834    0.00328846    0.00328864   0.000627593   0.000627629
         0.83      0.012727     0.0127274    0.00330183    0.00330199   0.000630299   0.000630325
        0.835     0.0127541     0.0127545    0.00330966    0.00330984   0.000631821   0.000631851
         0.84     0.0127957     0.0127961    0.00332232    0.00332254   0.000634322   0.000634357
        0.845     0.0128349     0.0128353    0.00333444    0.00333482   0.000636583   0.000636626
         0.85     0.0128764     0.0128767    0.00334752    0.00334729   0.000639073   0.000639078
        0.855     0.0129192     0.0129193    0.00335883    0.00335785   0.000641908   0.000641866
         0.86     0.0129629     0.0129634    0.00336949    0.00336991   0.000644754     0.0006448
        0.865      0.013011     0.0130115    0.00338444    0.00338477    0.00064774    0.00064778
         0.87     0.0130438     0.0130442    0.00339439    0.00339466   0.000649665   0.000649699
        0.875     0.0130869     0.0130873    0.00340771    0.00340796   0.000652293   0.000652329
         0.88     0.0131306      0.013131    0.00342121    0.00342143   0.000654955   0.000654987
        0.885     0.0131754     0.0131758    0.00343509     0.0034353   0.000657695   0.000657726
         0.89     0.0132187      0.013219    0.00344839    0.00344859   0.000660304   0.000660331
        0.895     0.0132639     0.0132643     0.0034624    0.00346263    0.00066305   0.000663077
          0.9       0.01331     0.0133103     0.0034768    0.00347684   0.000665856   0.000665865
        0.905     0.0133689      0.013369    0.00349535    0.00349518   0.000669539   0.000669526
         0.91     0.0134066      0.013407    0.00350703    0.00350726   0.000671788   0.000671815
        0.915     0.0134477     0.0134483    0.00352007    0.00352043   0.000674217   0.000674277
         0.92     0.0134793     0.0134799    0.00353046    0.00353087   0.000676009   0.000676075
        0.925     0.0135278     0.0135285    0.00354701    0.00354749   0.000678906   0.000678974
         0.93     0.0135868     0.0135875    0.00356871    0.00356944   0.000682402   0.000682483
        0.935     0.0136157     0.0136163    0.00358568    0.00358567   0.000683711   0.000683767
         0.94     0.0136649     0.0136652    0.00359053    0.00359017   0.000687306   0.000687297
        0.945     0.0137132     0.0137136    0.00359051    0.00359009    0.00069066   0.000690675
         0.95     0.0137618     0.0137623    0.00360466    0.00360484   0.000693631   0.000693679
        0.955     0.0138132     0.0138138    0.00362072    0.00362099   0.000696766   0.000696824
         0.96      0.013869     0.0138696    0.00363835    0.00363867   0.000700186   0.000700246
        0.965     0.0139031     0.0139037    0.00364902    0.00364942   0.000702116   0.000702181
         0.97     0.0139537     0.0139543    0.00366552    0.00366585   0.000705142   0.000705199
        0.975     0.0140071     0.0140075    0.00368209    0.00368182   0.000708414   0.000708428
         0.98      0.014055     0.0140555    0.00369457    0.00369455   0.000711381   0.000711412
        0.985     0.0141031     0.0141034    0.00370854     0.0037088   0.000714269   0.000714296
         0.99     0.0141558     0.0141561    0.00372506     0.0037252   0.000717408   0.000717428
        0.995     0.0142097     0.0142101    0.00374195    0.00374219   0.000720522   0.000720558
            1     0.0142706     0.0142711    0.00376105    0.00376122   0.000724247   0.000724267
        1.005     0.0143065     0.0143069    0.00377172     0.0037718   0.000726363   0.000726379
         1.01     0.0143593     0.0143597    0.00378759    0.00378754   0.000729229   0.000729232
        1.015     0.0144135      0.014414    0.00380424     0.0038044    0.00073257   0.000732593
         1.02     0.0144673     0.0144678    0.00382086    0.00382102   0.000735758   0.000735774
        1.025     0.0145236     0.0145241    0.00383746     0.0038377   0.000738028   0.000738012
         1.03      0.014581     0.0145814    0.00385547    0.00385562    0.00073814   0.000738224
        1.035      0.014634     0.0146345    0.00387287    0.00387303    0.00074696   0.000747067
         1.04     0.0146935     0.0146939    0.00389166    0.00389185   0.000752127   0.000752167
        1.045     0.0147482     0.0147486    0.00390854    0.00390874   0.000755626   0.000755662
         1.05     0.0148005     0.0148009    0.00392464    0.00392486   0.000758809   0.000758845
        1.055     0.0148601     0.0148605    0.00394322    0.00394343   0.000762452   0.000762483
         1.06     0.0149253     0.0149258    0.00396375      0.003964   0.000766449   0.000766485
        1.065     0.0149777     0.0149782    0.00398035    0.00398063   0.000769549   0.000769582
         1.07     0.0150172     0.0150176     0.0039934    0.00399385   0.000771778   0.000771815
        1.075     0.0150758     0.0150761    0.00401382    0.00401413   0.000775297   0.000775315
         1.08     0.0151356     0.0151358    0.00403592    0.00403609    0.00077894   0.000778931
        1.085     0.0151984     0.0151984    0.00405293    0.00405187   0.000782924   0.000782875
         1.09     0.0152543     0.0152546     0.0040578    0.00405692   0.000786486   0.000786476
        1.095     0.0153166     0.0153172    0.00407263    0.00407293   0.000790351   0.000790399
          1.1     0.0153901      0.015391    0.00409555    0.00409601   0.000794924    0.00079501
        1.105      0.015433     0.0154339    0.00410884    0.00410932   0.000797417    0.00079751
         1.11     0.0154945     0.0154955    0.00412825    0.00412877    0.00080118   0.000801282
        1.115     0.0155567     0.0155578    0.00414786    0.00414844   0.000804974   0.000805092
         1.12     0.0156192     0.0156204    0.00416754    0.00416825   0.000808772   0.000808902
        1.125     0.0156818     0.0156825    0.00418732    0.00418747   0.000812602   0.000812658
         1.13     0.0157445     0.0157451    0.00420665    0.00420669    0.00081641   0.000816446
        1.135     0.0158086     0.0158089    0.00422647    0.00422667   0.000820077   0.000820083
         1.14     0.0158738     0.0158741    0.00424688    0.00424708   0.000823604   0.000823647
        1.145     0.0159415     0.0159419    0.00426821    0.00426844   0.000828886   0.000828922
         1.15     0.0160115      0.016012    0.00429032    0.00429057   0.000833251   0.000833288
        1.155     0.0160882     0.0160887    0.00431457    0.00431488   0.000838005   0.000838048
         1.16      0.016131     0.0161313    0.00432804    0.00432844   0.000840439   0.000840477
        1.165     0.0162005      0.016201    0.00435098    0.00435136   0.000844658   0.000844699
         1.17      0.016281     0.0162814    0.00437566    0.00437531   0.000849636   0.000849644
        1.175     0.0163475     0.0163479    0.00439502    0.00439486   0.000853561   0.000853577
         1.18     0.0164002     0.0164006    0.00441028     0.0044104   0.000856764   0.000856774
        1.185     0.0164898     0.0164902    0.00443794    0.00443812   0.000863205    0.00086322
         1.19      0.016522     0.0165224    0.00444811    0.00444841   0.000865138   0.000865168
        1.195     0.0165888     0.0165892    0.00446968    0.00446976   0.000869276   0.000869295
          1.2     0.0166596       0.01666     0.0044929    0.00449285   0.000873665    0.00087367
        1.205     0.0167307     0.0167312    0.00451755     0.0045183   0.000878001   0.000878052
         1.21     0.0168069     0.0168074    0.00454262    0.00454241   0.000882717   0.000882751
        1.215     0.0168932     0.0168936     0.0045621    0.00456108   0.000888245   0.000888254
         1.22     0.0169304      0.016931    0.00456811    0.00456837    0.00089043    0.00089047
        1.225     0.0170001     0.0170008     0.0045897    0.00459017   0.000894647   0.000894706
         1.23     0.0170722     0.0170727     0.0046125    0.00461278   0.000898858   0.000898894
        1.235     0.0171515     0.0171521     0.0046376     0.0046378   0.000902655   0.000902666
         1.24     0.0172118     0.0172123    0.00465701    0.00465764   0.000907724   0.000907888
        1.245     0.0172858     0.0172863    0.00467995    0.00467979   0.000913202   0.000913206
         1.25     0.0173621     0.0173628    0.00470306    0.00470301   0.000918323   0.000918339
        1.255     0.0174398     0.0174407    0.00472721     0.0047276   0.000923196   0.000923277
         1.26     0.0175308     0.0175317     0.0047558    0.00475622   0.000928851   0.000928938
        1.265      0.017583     0.0175837    0.00477182    0.00477217   0.000931831   0.000931904
         1.27     0.0176444     0.0176451    0.00479072    0.00479106    0.00093538   0.000935439
        1.275     0.0177195     0.0177202    0.00481471    0.00481498   0.000940315   0.000940336
         1.28     0.0177958     0.0177966    0.00483969    0.00484001   0.000945496   0.000945541
        1.285     0.0178719     0.0178725    0.00486446    0.00486477   0.000950552   0.000950606
         1.29     0.0179467     0.0179474    0.00488811    0.00488843   0.000955203   0.000955257
        1.295     0.0180238     0.0180242    0.00491267     0.0049129   0.000960007   0.000960031
          1.3     0.0181014     0.0181018    0.00493773    0.00493808   0.000964831    0.00096486
        1.305     0.0181793     0.0181797     0.0049634    0.00496343    0.00096966   0.000969673
         1.31     0.0182594     0.0182599    0.00498921    0.00498941   0.000974677   0.000974707
        1.315     0.0183369     0.0183374    0.00501616    0.00501601   0.000979497   0.000979528
         1.32     0.0184138     0.0184145    0.00503576    0.00503598   0.000984352   0.000984408
        1.325     0.0184954     0.0184961    0.00505645    0.00505636   0.000989513   0.000989552
         1.33     0.0185826     0.0185833     0.0050824    0.00508258   0.000995176   0.000995227
        1.335     0.0186429     0.0186436    0.00509974    0.00509993   0.000999112   0.000999159
         1.34     0.0187179     0.0187186    0.00512341    0.00512371     0.0010038    0.00100386
        1.345     0.0187963      0.018797    0.00514842    0.00514874    0.00100873    0.00100879
         1.35     0.0188712     0.0188719    0.00517234    0.00517275    0.00101342    0.00101348
        1.355     0.0189588     0.0189595     0.0052008      0.005201    0.00101895      0.001019
         1.36     0.0190447     0.0190453    0.00522736    0.00522748    0.00102441    0.00102445
        1.365     0.0191245     0.0191251    0.00525183    0.00525191    0.00102949    0.00102952
         1.37     0.0192062     0.0192068    0.00527771    0.00527791    0.00103465    0.00103469
        1.375     0.0192886     0.0192893    0.00530395    0.00530421    0.00103986    0.00103991
         1.38     0.0193698     0.0193703    0.00532985    0.00533006      0.001045    0.00104503
        1.385     0.0194523     0.0194528    0.00535628    0.00535652    0.00105023    0.00105026
         1.39     0.0195273     0.0195278    0.00538037    0.00538068    0.00105495    0.00105498
        1.395     0.0196261     0.0196267    0.00541237      0.005413    0.00106123    0.00106128
          1.4     0.0197085     0.0197089    0.00543946    0.00543941    0.00106645    0.00106646
        1.405     0.0197914     0.0197919     0.0054675    0.00546807    0.00107165    0.00107169
         1.41     0.0198737      0.019874    0.00549126    0.00549066    0.00107693    0.00107692
        1.415     0.0199614     0.0199619    0.00551432      0.005514    0.00108259    0.00108261
         1.42      0.020049     0.0200496     0.0055413    0.00554161    0.00108812    0.00108818
        1.425     0.0201351     0.0201359    0.00556871    0.00556936    0.00109343    0.00109352
         1.43     0.0202222      0.020223    0.00559733    0.00559723    0.00109917    0.00109919
        1.435     0.0203141     0.0203149    0.00562694    0.00562674     0.0011053    0.00110533
         1.44     0.0204121      0.020413    0.00565796    0.00565851    0.00111157    0.00111166
        1.445     0.0204852     0.0204862    0.00568155    0.00568222    0.00111616    0.00111626
         1.45     0.0205489     0.0205501    0.00570261    0.00570326    0.00112008     0.0011202
        1.455     0.0206451     0.0206462    0.00573416    0.00573421    0.00112618    0.00112626
         1.46     0.0207279      0.020729    0.00575897     0.0057592    0.00113154    0.00113163
        1.465     0.0208197     0.0208208    0.00578628    0.00578662    0.00113751    0.00113761
         1.47     0.0209295     0.0209305    0.00582154    0.00582163    0.00114445    0.00114452
        1.475     0.0209889     0.0209898    0.00584071    0.00584132    0.00114787    0.00114798
         1.48     0.0210771     0.0210781    0.00586999     0.0058708    0.00115343    0.00115354
        1.485      0.021167     0.0211678    0.00589995    0.00589987    0.00115997    0.00116002
         1.49     0.0212609     0.0212617    0.00592759    0.00592664     0.0011661    0.00116612
        1.495     0.0213511     0.0213518    0.00595267    0.00595332    0.00117169    0.00117179
          1.5     0.0214445     0.0214451    0.00598331    0.00598364     0.0011779    0.00117791
        1.505     0.0215422     0.0215427    0.00601544    0.00601574     0.0011844    0.00118443
         1.51     0.0216485     0.0216491    0.00604951    0.00604983    0.00119105     0.0011911
        1.515     0.0217051     0.0217056    0.00606793    0.00606817    0.00119458    0.00119459