# Probe 0 (2.5 0.5 0.005)
# Probe 1 (2.5 -0.5 0.005)
# Probe 2 (4 0.5 0.005)
# Probe 3 (4 -0.5 0.005)
# Probe 4 (5.5 0.5 0.005)
# Probe 5 (5.5 -0.5 0.005)
#       Probe             0             1             2             3             4             5
#        Time
        0.005             (0.969676 -0.0273639 1.37127e-18)             (0.96967 0.0273498 -9.42863e-19)             (0.988841 -0.00589028 2.75298e-19)             (0.988839 0.00588474 -9.61355e-20)             (0.993842 -0.00106477 -7.19677e-21)             (0.993841 0.0010635 -1.31719e-20)
         0.01             (0.970756 -0.0129685 -6.82952e-20)             (0.970755 0.0129696 4.58541e-20)             (0.989337 -0.00279737 -1.35947e-20)             (0.989338 0.00279828 5.64537e-21)             (0.994084 -0.000874996 2.62195e-22)             (0.994084 0.000875457 4.97041e-22)
        0.015             (0.970168 -0.0135833 2.35179e-20)             (0.970167 0.0135816 -1.62161e-20)             (0.989113 -0.00295833 5.43056e-21)             (0.989113 0.0029579 -1.94613e-21)             (0.993963 -0.00086057 -1.34947e-22)             (0.993963 0.000860661 -2.47027e-22)
         0.02             (0.969673 -0.0140204 2.04074e-20)             (0.969672 0.0140178 -1.40762e-20)             (0.988924 -0.00306972 4.53424e-21)             (0.988925 0.00306884 -1.6214e-21)             (0.993856 -0.000850026 -1.16357e-22)             (0.993856 0.00084998 -2.12545e-22)
        0.025             (0.969229 -0.0143741 1.77265e-20)             (0.969228 0.0143712 -1.22268e-20)             (0.988756 -0.00316271 3.93642e-21)             (0.988756 0.00316166 -1.40402e-21)             (0.993762 -0.00084293 -1.0271e-22)             (0.993762 0.000842819 -1.87435e-22)
         0.03             (0.968827 -0.0146717 1.55118e-20)             (0.968826 0.0146687 -1.07006e-20)             (0.988604 -0.00324206 3.45408e-21)             (0.988604 0.00324095 -1.22884e-21)             (0.993678 -0.000838202 -9.11493e-23)             (0.993678 0.00083806 -1.6619e-22)
        0.035             (0.96846 -0.0149289 1.36648e-20)             (0.968459 0.0149258 -9.42864e-21)             (0.988465 -0.003312 3.05655e-21)             (0.988465 0.00331088 -1.08553e-21)             (0.993603 -0.000835287 -8.13718e-23)             (0.993603 0.000835126 -1.48277e-22)
         0.04             (0.968122 -0.0151548 1.21008e-20)             (0.968121 0.0151519 -8.35101e-21)             (0.988337 -0.00337452 2.72468e-21)             (0.988337 0.00337343 -9.67754e-22)             (0.993535 -0.000833787 -7.30003e-23)             (0.993535 0.00083362 -1.32949e-22)
        0.045             (0.96781 -0.0153556 1.0759e-20)             (0.967809 0.0153529 -7.42665e-21)             (0.988219 -0.00343066 2.43795e-21)             (0.988218 0.00342962 -8.65208e-22)             (0.993473 -0.000833392 -6.57308e-23)             (0.993473 0.000833227 -1.19658e-22)
         0.05             (0.967521 -0.0155351 9.59438e-21)             (0.96752 0.0155325 -6.62482e-21)             (0.988109 -0.00348082 2.18911e-21)             (0.988109 0.00347984 -7.76304e-22)             (0.993416 -0.000833873 -5.93576e-23)             (0.993416 0.000833713 -1.08017e-22)
        0.055             (0.96725 -0.015696 8.57729e-21)             (0.967249 0.0156935 -5.92445e-21)             (0.988006 -0.00352553 1.97157e-21)             (0.988006 0.00352462 -6.98595e-22)             (0.993365 -0.000835058 -5.37369e-23)             (0.993364 0.000834905 -9.77541e-23)
         0.06             (0.966996 -0.015841 7.68419e-21)             (0.966996 0.0158387 -5.3095e-21)             (0.98791 -0.00356565 1.78072e-21)             (0.98791 0.0035648 -6.30526e-22)             (0.993317 -0.000836824 -4.87633e-23)             (0.993317 0.000836679 -8.86756e-23)
        0.065             (0.966757 -0.0159727 6.89515e-21)             (0.966756 0.0159705 -4.7659e-21)             (0.98782 -0.00360194 1.61191e-21)             (0.98782 0.00360116 -5.70438e-22)             (0.993273 -0.000839065 -4.43345e-23)             (0.993273 0.000838931 -8.05867e-23)
         0.07             (0.96653 -0.016093 6.19486e-21)             (0.96653 0.0160911 -4.28344e-21)             (0.987735 -0.00363533 1.46134e-21)             (0.987735 0.00363464 -5.1714e-22)             (0.993233 -0.00084171 -4.03812e-23)             (0.993232 0.000841588 -7.33744e-23)
        0.075             (0.966315 -0.0162038 5.57025e-21)             (0.966314 0.016202 -3.85305e-21)             (0.987654 -0.00366488 1.33014e-21)             (0.987654 0.00366427 -4.69911e-22)             (0.993195 -0.000844733 -3.68596e-23)             (0.993195 0.000844622 -6.69804e-23)
         0.08             (0.966109 -0.0163065 5.01037e-21)             (0.966108 0.0163048 -3.46729e-21)             (0.987578 -0.00369146 1.21176e-21)             (0.987578 0.00369095 -4.27604e-22)             (0.99316 -0.000848105 -3.36998e-23)             (0.993159 0.000848006 -6.1261e-23)
        0.085             (0.965912 -0.0164023 4.50688e-21)             (0.965911 0.0164009 -3.12031e-21)             (0.987505 -0.00371544 1.10521e-21)             (0.987505 0.00371499 -3.89565e-22)             (0.993127 -0.000851754 -3.08203e-23)             (0.993127 0.000851666 -5.60195e-23)
         0.09             (0.965723 -0.0164925 4.05244e-21)             (0.965722 0.0164912 -2.80706e-21)             (0.987436 -0.00373788 1.00691e-21)             (0.987436 0.00373748 -3.54935e-22)             (0.993096 -0.000855623 -2.81934e-23)             (0.993096 0.000855546 -5.12346e-23)
        0.095             (0.96554 -0.0165778 3.64176e-21)             (0.96554 0.0165766 -2.52388e-21)             (0.98737 -0.00375906 9.17869e-22)             (0.98737 0.00375872 -3.23619e-22)             (0.993067 -0.000859684 -2.5808e-23)             (0.993067 0.000859618 -4.68893e-23)
          0.1             (0.965364 -0.016659 3.26879e-21)             (0.965364 0.016658 -2.2668e-21)             (0.987306 -0.00377916 8.3674e-22)             (0.987306 0.00377887 -2.95095e-22)             (0.99304 -0.000863911 -2.36309e-23)             (0.99304 0.000863855 -4.29262e-23)
        0.105             (0.965194 -0.0167368 2.92936e-21)             (0.965193 0.0167358 -2.03274e-21)             (0.987245 -0.00379834 7.63387e-22)             (0.987245 0.00379809 -2.69538e-22)             (0.993015 -0.000868293 -2.16489e-23)             (0.993015 0.000868247 -3.93181e-23)
         0.11             (0.965029 -0.0168115 2.6196e-21)             (0.965028 0.0168107 -1.81911e-21)             (0.987187 -0.00381666 6.96471e-22)             (0.987187 0.00381646 -2.46343e-22)             (0.992991 -0.000872813 -1.98346e-23)             (0.992991 0.000872776 -3.60152e-23)
        0.115             (0.964868 -0.0168837 2.33632e-21)             (0.964867 0.016883 -1.6237e-21)             (0.987131 -0.00383442 6.34605e-22)             (0.987131 0.00383426 -2.24542e-22)             (0.992968 -0.00087745 -1.81669e-23)             (0.992968 0.000877422 -3.29789e-23)
         0.12             (0.964711 -0.0169537 2.07709e-21)             (0.964711 0.0169531 -1.44491e-21)             (0.987076 -0.00385191 5.77852e-22)             (0.987076 0.00385179 -2.04377e-22)             (0.992947 -0.000882196 -1.66386e-23)             (0.992947 0.000882177 -3.0198e-23)
        0.125             (0.964559 -0.0170219 1.83893e-21)             (0.964558 0.0170213 -1.28068e-21)             (0.987023 -0.00386891 5.25856e-22)             (0.987023 0.00386883 -1.86155e-22)             (0.992927 -0.000887038 -1.52304e-23)             (0.992927 0.000887027 -2.76364e-23)
         0.13             (0.964409 -0.0170884 1.61907e-21)             (0.964409 0.0170879 -1.12904e-21)             (0.986971 -0.00388539 4.77758e-22)             (0.986971 0.00388535 -1.69342e-22)             (0.992907 -0.000891964 -1.39266e-23)             (0.992907 0.000891961 -2.52641e-23)
        0.135             (0.964263 -0.0171534 1.41644e-21)             (0.964263 0.0171531 -9.89278e-22)             (0.986921 -0.00390153 4.335e-22)             (0.986921 0.00390151 -1.53886e-22)             (0.992889 -0.000896969 -1.27249e-23)             (0.992889 0.000896973 -2.3078e-23)
         0.14             (0.96412 -0.0172173 1.22927e-21)             (0.96412 0.017217 -8.60146e-22)             (0.986873 -0.00391726 3.92509e-22)             (0.986873 0.00391728 -1.39563e-22)             (0.992871 -0.000902042 -1.16116e-23)             (0.992872 0.000902054 -2.10522e-23)
        0.145             (0.96398 -0.01728 1.05602e-21)             (0.963979 0.0172798 -7.40632e-22)             (0.986825 -0.00393263 3.54525e-22)             (0.986825 0.00393268 -1.26296e-22)             (0.992855 -0.000907179 -1.05795e-23)             (0.992855 0.000907197 -1.91745e-23)
         0.15             (0.963842 -0.0173419 8.95586e-22)             (0.963841 0.0173417 -6.29939e-22)             (0.986779 -0.00394767 3.1933e-22)             (0.986779 0.00394775 -1.14002e-22)             (0.992839 -0.000912372 -9.62264e-24)             (0.992839 0.000912397 -1.74332e-23)
        0.155             (0.963706 -0.0174029 7.46636e-22)             (0.963706 0.0174028 -5.27192e-22)             (0.986734 -0.00396242 2.86638e-22)             (0.986734 0.00396252 -1.02588e-22)             (0.992824 -0.000917618 -8.73346e-24)             (0.992824 0.000917649 -1.58158e-23)
         0.16             (0.963572 -0.0174633 6.08419e-22)             (0.963572 0.0174632 -4.31839e-22)             (0.98669 -0.00397692 2.56312e-22)             (0.98669 0.00397705 -9.20027e-23)             (0.992809 -0.000922912 -7.90801e-24)             (0.992809 0.000922949 -1.43143e-23)
        0.165             (0.96344 -0.0175231 4.79896e-22)             (0.96344 0.0175231 -3.43186e-22)             (0.986647 -0.0039912 2.28089e-22)             (0.986647 0.00399136 -8.21524e-23)             (0.992795 -0.000928249 -7.13968e-24)             (0.992795 0.000928292 -1.2917e-23)
         0.17             (0.96331 -0.0175824 3.60331e-22)             (0.96331 0.0175825 -2.60705e-22)             (0.986605 -0.00400528 2.01825e-22)             (0.986605 0.00400546 -7.29856e-23)             (0.992782 -0.000933627 -6.42447e-24)             (0.992782 0.000933676 -1.16162e-23)
        0.175             (0.963181 -0.0176413 2.48906e-22)             (0.963181 0.0176414 -1.83869e-22)             (0.986563 -0.0040192 1.77345e-22)             (0.986563 0.0040194 -6.44455e-23)             (0.992769 -0.000939043 -5.75762e-24)             (0.992769 0.000939097 -1.0404e-23)
         0.18             (0.963054 -0.0176999 1.45404e-22)             (0.963054 0.0177 -1.12498e-22)             (0.986522 -0.00403296 1.54589e-22)             (0.986523 0.00403318 -5.65076e-23)             (0.992756 -0.000944494 -5.13748e-24)             (0.992756 0.000944552 -9.27683e-24)
        0.185             (0.962928 -0.0177582 4.86367e-23)             (0.962928 0.0177584 -4.57444e-23)             (0.986482 -0.0040466 1.33321e-22)             (0.986482 0.00404683 -4.90845e-23)             (0.992744 -0.000949976 -4.55783e-24)             (0.992744 0.000950039 -8.22264e-24)
         0.19             (0.962804 -0.0178163 -4.17128e-23)             (0.962804 0.0178165 1.66371e-23)             (0.986443 -0.00406011 1.13464e-22)             (0.986443 0.00406036 -4.21457e-23)             (0.992732 -0.000955488 -4.01669e-24)             (0.992732 0.000955555 -7.23722e-24)
        0.195             (0.96268 -0.0178743 -1.26401e-22)             (0.96268 0.0178746 7.50306e-23)             (0.986404 -0.00407353 9.48748e-23)             (0.986404 0.0040738 -3.56629e-23)             (0.992721 -0.000961028 -3.5098e-24)             (0.992721 0.000961099 -6.31598e-24)
          0.2             (0.962558 -0.0179321 -2.05591e-22)             (0.962558 0.0179325 1.29671e-22)             (0.986366 -0.00408686 7.74923e-23)             (0.986366 0.00408714 -2.9593e-23)             (0.99271 -0.000966593 -3.0359e-24)             (0.99271 0.000966669 -5.45381e-24)
        0.205             (0.962436 -0.01799 -2.79785e-22)             (0.962436 0.0179903 1.80848e-22)             (0.986328 -0.00410011 6.12167e-23)             (0.986328 0.00410041 -2.39109e-23)             (0.992699 -0.000972183 -2.59214e-24)             (0.992699 0.000972262 -4.6469e-24)
         0.21             (0.962316 -0.0180478 -3.49469e-22)             (0.962316 0.0180482 2.28933e-22)             (0.98629 -0.00411331 4.59501e-23)             (0.98629 0.00411362 -1.85773e-23)             (0.992689 -0.000977794 -2.17597e-24)             (0.992689 0.000977878 -3.88984e-24)
        0.215             (0.962196 -0.0181058 -4.14568e-22)             (0.962196 0.0181062 2.73843e-22)             (0.986253 -0.00412644 3.1651e-23)             (0.986253 0.00412676 -1.35721e-23)             (0.992679 -0.000983426 -1.78662e-24)             (0.992679 0.000983514 -3.1819e-24)
         0.22             (0.962077 -0.0181638 -4.7584e-22)             (0.962077 0.0181643 3.16114e-22)             (0.986216 -0.00413951 1.79419e-23)             (0.986217 0.00413985 -8.65735e-24)             (0.992669 -0.000989077 -1.41991e-24)             (0.992669 0.000989168 -2.51508e-24)
        0.225             (0.961958 -0.0182221 -5.33348e-22)             (0.961958 0.0182226 3.55782e-22)             (0.98618 -0.00415257 5.83942e-24)             (0.98618 0.00415292 -4.64038e-24)             (0.992659 -0.000994748 -1.07811e-24)             (0.992659 0.000994842 -1.89397e-24)
         0.23             (0.96184 -0.0182805 -5.87935e-22)             (0.96184 0.018281 3.93451e-22)             (0.986144 -0.00416559 -6.07288e-24)             (0.986144 0.00416596 -4.77715e-25)             (0.992649 -0.00100043 -7.5289e-25)             (0.99265 0.00100053 -1.3024e-24)
        0.235             (0.961723 -0.0183391 -6.38685e-22)             (0.961723 0.0183397 4.28477e-22)             (0.986108 -0.0041786 -1.718e-23)             (0.986108 0.00417897 3.40976e-24)             (0.99264 -0.00100613 -4.48351e-25)             (0.99264 0.00100623 -7.48021e-25)
         0.24             (0.961606 -0.018398 -6.86811e-22)             (0.961606 0.0183986 4.61688e-22)             (0.986073 -0.00419159 -2.76169e-23)             (0.986073 0.00419197 7.04827e-24)             (0.992631 -0.00101186 -1.66462e-25)             (0.992631 0.00101196 -2.369e-25)
        0.245             (0.961489 -0.0184571 -7.32277e-22)             (0.961489 0.0184577 4.93066e-22)             (0.986038 -0.00420457 -3.74955e-23)             (0.986038 0.00420497 1.0498e-23)             (0.992622 -0.00101759 1.03419e-25)             (0.992622 0.0010177 2.53594e-25)
         0.25             (0.961373 -0.0185165 -7.75222e-22)             (0.961373 0.0185172 5.22701e-22)             (0.986003 -0.00421756 -4.68033e-23)             (0.986003 0.00421797 1.37464e-23)             (0.992613 -0.00102335 3.58655e-25)             (0.992613 0.00102346 7.17101e-25)
        0.255             (0.961257 -0.0185763 -8.15818e-22)             (0.961257 0.0185769 5.50703e-22)             (0.985968 -0.00423058 -5.55515e-23)             (0.985968 0.00423099 1.67929e-23)             (0.992605 -0.00102912 6.02014e-25)             (0.992605 0.00102924 1.1575e-24)
         0.26             (0.961142 -0.0186363 -8.54375e-22)             (0.961142 0.0186369 5.77284e-22)             (0.985933 -0.00424359 -6.38869e-23)             (0.985933 0.00424401 1.97086e-23)             (0.992596 -0.00103495 8.54724e-25)             (0.992596 0.00103506 1.60438e-24)
        0.265             (0.961026 -0.0186966 -8.90841e-22)             (0.961026 0.0186972 6.02463e-22)             (0.985899 -0.00425659 -7.1763e-23)             (0.985899 0.00425702 2.24801e-23)             (0.992588 -0.00104072 1.02927e-24)             (0.992588 0.00104084 1.94099e-24)
         0.27             (0.960911 -0.0187572 -9.25704e-22)             (0.960911 0.0187579 6.26512e-22)             (0.985865 -0.0042696 -7.92143e-23)             (0.985865 0.00427004 2.50899e-23)             (0.992579 -0.0010465 1.23234e-24)             (0.99258 0.00104662 2.3106e-24)
        0.275             (0.960796 -0.0188181 -9.58883e-22)             (0.960796 0.0188188 6.49375e-22)             (0.98583 -0.00428263 -8.62652e-23)             (0.985831 0.00428307 2.75587e-23)             (0.992571 -0.00105229 1.42584e-24)             (0.992571 0.00105241 2.66172e-24)
         0.28             (0.960682 -0.0188793 -9.8998e-22)             (0.960682 0.0188801 6.70809e-22)             (0.985796 -0.00429568 -9.28271e-23)             (0.985796 0.00429613 2.98611e-23)             (0.992563 -0.00105809 1.6068e-24)             (0.992563 0.00105822 2.99009e-24)
        0.285             (0.960567 -0.0189409 -1.01991e-21)             (0.960567 0.0189416 6.91464e-22)             (0.985762 -0.00430874 -9.90971e-23)             (0.985763 0.0043092 3.20853e-23)             (0.992555 -0.0010639 1.78038e-24)             (0.992555 0.00106403 3.30571e-24)
         0.29             (0.960453 -0.0190028 -1.04776e-21)             (0.960453 0.0190035 7.10655e-22)             (0.985729 -0.00432177 -1.04844e-22)             (0.985729 0.00432223 3.4162e-23)             (0.992547 -0.00106972 1.94252e-24)             (0.992547 0.00106985 3.59992e-24)
        0.295             (0.960338 -0.019065 -1.07453e-21)             (0.960338 0.0190658 7.2913e-22)             (0.985695 -0.0043346 -1.09784e-22)             (0.985695 0.00433505 3.61191e-23)             (0.992539 -0.00107555 2.09574e-24)             (0.992539 0.00107568 3.87873e-24)
          0.3             (0.960224 -0.0191275 -1.10041e-21)             (0.960224 0.0191283 7.46955e-22)             (0.985661 -0.00434761 -1.15365e-22)             (0.985661 0.0043481 3.80432e-23)             (0.992532 -0.00108139 2.24423e-24)             (0.992532 0.00108152 4.14797e-24)
        0.305             (0.96011 -0.0191904 -1.12514e-21)             (0.96011 0.0191912 7.6402e-22)             (0.985627 -0.00436111 -1.21589e-22)             (0.985628 0.00436161 3.99463e-23)             (0.992524 -0.00108723 2.38737e-24)             (0.992524 0.00108737 4.40821e-24)
         0.31             (0.959995 -0.0192535 -1.14867e-21)             (0.959995 0.0192543 7.80272e-22)             (0.985594 -0.00437462 -1.26684e-22)             (0.985594 0.00437512 4.17926e-23)             (0.992516 -0.00109308 2.52328e-24)             (0.992516 0.00109322 4.65599e-24)
        0.315             (0.959881 -0.019317 -1.17129e-21)             (0.959881 0.0193178 7.95854e-22)             (0.98556 -0.00438824 -1.31514e-22)             (0.98556 0.00438875 4.35424e-23)             (0.992508 -0.00109893 2.65185e-24)             (0.992509 0.00109908 4.88933e-24)
         0.32             (0.959767 -0.0193808 -1.19301e-21)             (0.959767 0.0193817 8.10829e-22)             (0.985526 -0.00440208 -1.36203e-22)             (0.985526 0.00440259 4.52887e-23)             (0.992501 -0.0011048 2.77408e-24)             (0.992501 0.00110494 5.11132e-24)
        0.325             (0.959653 -0.0194449 -1.21376e-21)             (0.959653 0.0194458 8.25109e-22)             (0.985493 -0.00441569 -1.40278e-22)             (0.985493 0.00441619 4.65367e-23)             (0.992493 -0.00111066 2.89245e-24)             (0.992493 0.00111081 5.32592e-24)
         0.33             (0.959538 -0.0195094 -1.23376e-21)             (0.959538 0.0195103 8.38864e-22)             (0.98546 -0.00442916 -1.4423e-22)             (0.98546 0.00442967 4.78058e-23)             (0.992486 -0.00111653 3.00566e-24)             (0.992486 0.00111669 5.5314e-24)
        0.335             (0.959424 -0.0195741 -1.2532e-21)             (0.959424 0.019575 8.52274e-22)             (0.985426 -0.00444266 -1.48219e-22)             (0.985426 0.00444318 4.91758e-23)             (0.992478 -0.00112241 3.1144e-24)             (0.992479 0.00112256 5.72892e-24)
         0.34             (0.959309 -0.0196392 -1.27175e-21)             (0.95931 0.0196401 8.65063e-22)             (0.985393 -0.00445621 -1.52019e-22)             (0.985393 0.00445673 5.04842e-23)             (0.992471 -0.00112829 3.21759e-24)             (0.992471 0.00112845 5.9166e-24)
        0.345             (0.959195 -0.0197046 -1.28961e-21)             (0.959195 0.0197055 8.77372e-22)             (0.98536 -0.00446981 -1.55662e-22)             (0.98536 0.00447034 5.17382e-23)             (0.992464 -0.00113418 3.31647e-24)             (0.992464 0.00113433 6.09632e-24)
         0.35             (0.95908 -0.0197704 -1.30653e-21)             (0.95908 0.0197713 8.89045e-22)             (0.985327 -0.00448347 -1.59104e-22)             (0.985327 0.004484 5.2923e-23)             (0.992456 -0.00114007 3.40987e-24)             (0.992456 0.00114023 6.2664e-24)
        0.355             (0.958966 -0.0198364 -1.32312e-21)             (0.958966 0.0198373 9.00453e-22)             (0.985293 -0.00449718 -1.6248e-22)             (0.985294 0.00449772 5.40806e-23)             (0.992449 -0.00114596 3.50118e-24)             (0.992449 0.00114612 6.43176e-24)
         0.36             (0.958851 -0.0199028 -1.33882e-21)             (0.958851 0.0199037 9.11257e-22)             (0.98526 -0.00451093 -1.65678e-22)             (0.98526 0.00451148 5.51809e-23)             (0.992441 -0.00115186 3.58762e-24)             (0.992442 0.00115202 6.58855e-24)
        0.365             (0.958736 -0.0199695 -1.3543e-21)             (0.958736 0.0199704 9.21909e-22)             (0.985227 -0.00452474 -1.68805e-22)             (0.985227 0.00452529 5.62535e-23)             (0.992434 -0.00115776 3.67215e-24)             (0.992434 0.00115793 6.74185e-24)
         0.37             (0.958621 -0.0200365 -1.36929e-21)             (0.958621 0.0200374 9.32232e-22)             (0.985194 -0.00453859 -1.71817e-22)             (0.985194 0.00453915 5.72856e-23)             (0.992427 -0.00116367 3.7535e-24)             (0.992427 0.00116384 6.88949e-24)
        0.375             (0.958505 -0.0201038 -1.38355e-21)             (0.958505 0.0201048 9.42032e-22)             (0.98516 -0.0045525 -1.74677e-22)             (0.985161 0.00455306 5.8261e-23)             (0.992419 -0.00116958 3.83078e-24)             (0.99242 0.00116975 7.02929e-24)
         0.38             (0.95839 -0.0201715 -1.39761e-21)             (0.95839 0.0201724 9.51724e-22)             (0.985127 -0.00456646 -1.77481e-22)             (0.985127 0.00456703 5.92206e-23)             (0.992412 -0.00117549 3.90635e-24)             (0.992412 0.00117566 7.16673e-24)
        0.385             (0.958274 -0.0202395 -1.41102e-21)             (0.958274 0.0202404 9.60958e-22)             (0.985094 -0.00458048 -1.80142e-22)             (0.985094 0.00458105 6.01282e-23)             (0.992405 -0.00118141 3.97821e-24)             (0.992405 0.00118158 7.29721e-24)
         0.39             (0.958158 -0.0203078 -1.42401e-21)             (0.958158 0.0203088 9.69907e-22)             (0.98506 -0.00459456 -1.82709e-22)             (0.985061 0.00459513 6.10019e-23)             (0.992397 -0.00118733 4.04743e-24)             (0.992398 0.00118751 7.42313e-24)
        0.395             (0.958042 -0.0203764 -1.43641e-21)             (0.958042 0.0203774 9.78453e-22)             (0.985027 -0.0046087 -1.8514e-22)             (0.985027 0.00460928 6.18229e-23)             (0.99239 -0.00119325 4.11316e-24)             (0.99239 0.00119343 7.5426e-24)
          0.4             (0.957926 -0.0204454 -1.44847e-21)             (0.957926 0.0204464 9.86747e-22)             (0.984994 -0.00462289 -1.87525e-22)             (0.984994 0.00462347 6.26371e-23)             (0.992383 -0.00119918 4.17737e-24)             (0.992383 0.00119936 7.65876e-24)
        0.405             (0.95781 -0.0205147 -1.46054e-21)             (0.95781 0.0205157 9.95042e-22)             (0.98496 -0.00463711 -1.89922e-22)             (0.98496 0.0046377 6.34654e-23)             (0.992376 -0.00120511 4.24159e-24)             (0.992376 0.00120529 7.7752e-24)
         0.41             (0.957693 -0.0205844 -1.47202e-21)             (0.957693 0.0205854 1.00295e-21)             (0.984927 -0.00465137 -1.92195e-22)             (0.984927 0.00465196 6.42482e-23)             (0.992368 -0.00121105 4.30256e-24)             (0.992368 0.00121123 7.88597e-24)
        0.415             (0.957576 -0.0206544 -1.48344e-21)             (0.957576 0.0206554 1.01079e-21)             (0.984893 -0.00466567 -1.94447e-22)             (0.984893 0.00466627 6.50169e-23)             (0.992361 -0.00121698 4.3628e-24)             (0.992361 0.00121717 7.99518e-24)
         0.42             (0.957459 -0.0207247 -1.49436e-21)             (0.957459 0.0207257 1.01831e-21)             (0.98486 -0.00468002 -1.96582e-22)             (0.98486 0.00468062 6.57391e-23)             (0.992354 -0.00122292 4.42013e-24)             (0.992354 0.00122311 8.09905e-24)
        0.425             (0.957342 -0.0207953 -1.50519e-21)             (0.957342 0.0207964 1.02576e-21)             (0.984826 -0.00469442 -1.98683e-22)             (0.984826 0.00469502 6.64499e-23)             (0.992346 -0.00122886 4.47656e-24)             (0.992346 0.00122905 8.20155e-24)
         0.43             (0.957224 -0.0208663 -1.51585e-21)             (0.957224 0.0208674 1.03308e-21)             (0.984793 -0.00470887 -2.00731e-22)             (0.984793 0.00470948 6.71343e-23)             (0.992339 -0.00123481 4.53159e-24)             (0.992339 0.001235 8.30128e-24)
        0.435             (0.957106 -0.0209376 -1.52597e-21)             (0.957106 0.0209387 1.04005e-21)             (0.984759 -0.00472338 -2.02652e-22)             (0.984759 0.00472399 6.77709e-23)             (0.992331 -0.00124076 4.58335e-24)             (0.992332 0.00124095 8.39525e-24)
         0.44             (0.956988 -0.0210093 -1.53553e-21)             (0.956988 0.0210104 1.04662e-21)             (0.984725 -0.00473796 -2.04427e-22)             (0.984725 0.00473858 6.83413e-23)             (0.992324 -0.00124671 4.63118e-24)             (0.992324 0.00124691 8.48205e-24)
        0.445             (0.95687 -0.0210813 -1.5449e-21)             (0.95687 0.0210824 1.05306e-21)             (0.984691 -0.00475261 -2.06125e-22)             (0.984692 0.00475323 6.88776e-23)             (0.992317 -0.00125268 4.67384e-24)             (0.992317 0.00125287 8.56146e-24)
         0.45             (0.956751 -0.0211537 -1.55436e-21)             (0.956751 0.0211548 1.05957e-21)             (0.984658 -0.00476729 -2.08146e-22)             (0.984658 0.00476791 6.96347e-23)             (0.992309 -0.00125864 4.73069e-24)             (0.992309 0.00125883 8.66172e-24)
        0.455             (0.956632 -0.0212264 -1.56363e-21)             (0.956632 0.0212275 1.06593e-21)             (0.984624 -0.00478201 -2.09982e-22)             (0.984624 0.00478264 7.02714e-23)             (0.992302 -0.0012646 4.77887e-24)             (0.992302 0.0012648 8.74887e-24)
         0.46             (0.956513 -0.0212995 -1.57269e-21)             (0.956513 0.0213006 1.07214e-21)             (0.98459 -0.0047968 -2.11689e-22)             (0.98459 0.00479743 7.08353e-23)             (0.992294 -0.00127056 4.82464e-24)             (0.992294 0.00127076 8.83118e-24)
        0.465             (0.956393 -0.021373 -1.58133e-21)             (0.956393 0.021374 1.07809e-21)             (0.984556 -0.00481166 -2.13298e-22)             (0.984556 0.00481229 7.13618e-23)             (0.992287 -0.00127654 4.86758e-24)             (0.992287 0.00127674 8.90869e-24)
         0.47             (0.956273 -0.0214468 -1.58981e-21)             (0.956274 0.0214478 1.08393e-21)             (0.984522 -0.0048266 -2.14847e-22)             (0.984522 0.00482724 7.18601e-23)             (0.992279 -0.00128252 4.90707e-24)             (0.99228 0.00128273 8.97822e-24)
        0.475             (0.956153 -0.0215209 -1.59809e-21)             (0.956153 0.021522 1.08962e-21)             (0.984487 -0.00484161 -2.16389e-22)             (0.984488 0.00484226 7.23566e-23)             (0.992272 -0.0012885 4.95087e-24)             (0.992272 0.00128871 9.05969e-24)
         0.48             (0.956033 -0.0215954 -1.6065e-21)             (0.956033 0.0215965 1.09538e-21)             (0.984453 -0.00485666 -2.17999e-22)             (0.984453 0.00485731 7.29166e-23)             (0.992264 -0.00129448 4.99694e-24)             (0.992264 0.00129469 9.14538e-24)
        0.485             (0.955912 -0.0216703 -1.61506e-21)             (0.955912 0.0216714 1.10127e-21)             (0.984419 -0.00487172 -2.19625e-22)             (0.984419 0.00487237 7.34886e-23)             (0.992257 -0.00130046 5.04067e-24)             (0.992257 0.00130067 9.22504e-24)
         0.49             (0.955791 -0.0217455 -1.62275e-21)             (0.955791 0.0217466 1.10656e-21)             (0.984385 -0.00488687 -2.21018e-22)             (0.984385 0.00488752 7.39241e-23)             (0.992249 -0.00130644 5.07896e-24)             (0.992249 0.00130665 9.29437e-24)
        0.495             (0.95567 -0.0218211 -1.63036e-21)             (0.95567 0.0218222 1.11179e-21)             (0.98435 -0.00490209 -2.22378e-22)             (0.98435 0.00490275 7.43411e-23)             (0.992242 -0.00131243 5.11634e-24)             (0.992242 0.00131264 9.36201e-24)
          0.5             (0.955548 -0.0218971 -1.6375e-21)             (0.955548 0.0218982 1.11669e-21)             (0.984316 -0.0049174 -2.23655e-22)             (0.984316 0.00491806 7.47249e-23)             (0.992234 -0.00131842 5.15174e-24)             (0.992234 0.00131863 9.42577e-24)
        0.505             (0.955426 -0.0219735 -1.64529e-21)             (0.955426 0.0219746 1.12204e-21)             (0.984281 -0.0049328 -2.25019e-22)             (0.984281 0.00493347 7.51297e-23)             (0.992226 -0.00132442 5.18987e-24)             (0.992227 0.00132463 9.49488e-24)