/*--------------------------------*- C++ -*----------------------------------*\
  =========                 |
  \\      /  F ield         | OpenFOAM: The Open Source CFD Toolbox
   \\    /   O peration     | Website:  https://openfoam.org
    \\  /    A nd           | Version:  7
     \\/     M anipulation  |
\*---------------------------------------------------------------------------*/
FoamFile
{
    version     2.0;
    format      ascii;
    class       surfaceScalarField;
    location    "15";
    object      phi;
}
// * * * * * * * * * * * * * * * * * * * * * * * * * * * * * * * * * * * * * //

dimensions      [0 3 -1 0 0 0 0];

internalField   nonuniform List<scalar> 
12578
(
-4.21769e-06
4.20665e-06
1.10376e-08
-1.45289e-05
1.02805e-05
3.06265e-08
-2.94392e-05
1.48614e-05
4.89543e-08
-4.75014e-05
1.79966e-05
6.55518e-08
-6.73532e-05
1.97717e-05
8.009e-08
-8.77818e-05
2.03362e-05
9.2413e-08
-0.000107805
1.99204e-05
1.02559e-07
-0.000126785
1.8869e-05
1.10759e-07
-0.000144484
1.75816e-05
1.17371e-07
1.65591e-05
1.22834e-07
-0.000161165
-4.14242e-06
8.34907e-06
-1.42362e-05
2.03743e-05
-2.87755e-05
2.94007e-05
-4.62954e-05
3.55165e-05
-6.54092e-05
3.88855e-05
-8.48718e-05
3.97988e-05
-0.000103661
3.87095e-05
-0.000121096
3.6304e-05
-0.000136901
3.33871e-05
3.09593e-05
-0.000151302
-3.993e-06
1.23421e-05
-1.36545e-05
3.00359e-05
-2.74556e-05
4.32018e-05
-4.38961e-05
5.19571e-05
-6.15406e-05
5.65299e-05
-7.90794e-05
5.73376e-05
-9.54108e-05
5.50409e-05
-0.000109767
5.06602e-05
-0.000121797
4.54169e-05
4.08084e-05
-0.000131646
-3.77157e-06
1.61136e-05
-1.27909e-05
3.90552e-05
-2.54941e-05
5.59049e-05
-4.03285e-05
6.67915e-05
-5.57859e-05
7.19874e-05
-7.04609e-05
7.20126e-05
-8.31322e-05
6.77122e-05
-9.29e-05
6.0428e-05
-9.92974e-05
5.18143e-05
4.3864e-05
-0.000102353
-3.48115e-06
1.95948e-05
-1.16553e-05
4.72294e-05
-2.29115e-05
6.71611e-05
-3.56278e-05
7.95078e-05
-4.82005e-05
8.45601e-05
-5.90971e-05
8.29092e-05
-6.69369e-05
7.5552e-05
-7.06415e-05
6.41326e-05
-6.9593e-05
5.07659e-05
3.79206e-05
-6.36496e-05
-3.12534e-06
2.27201e-05
-1.02598e-05
5.43639e-05
-1.97329e-05
7.66342e-05
-2.98375e-05
8.96124e-05
-3.88525e-05
9.35751e-05
-4.50886e-05
8.91453e-05
-4.69659e-05
7.74293e-05
-4.31712e-05
6.03379e-05
-3.29027e-05
4.04973e-05
2.10896e-05
-1.60717e-05
-2.70808e-06
2.54282e-05
-8.61752e-06
6.02733e-05
-1.59861e-05
8.40028e-05
-2.30059e-05
9.66322e-05
-2.78184e-05
9.83877e-05
-2.85507e-05
8.98776e-05
-2.33857e-05
7.22643e-05
-1.07159e-05
4.7668e-05
1.07374e-05
1.9044e-05
-8.79864e-06
4.06257e-05
-2.23329e-06
2.76615e-05
-6.74178e-06
6.47818e-05
-1.16991e-05
8.89601e-05
-1.51826e-05
0.000100116
-1.51788e-05
9.83838e-05
-9.60618e-06
8.4305e-05
3.6249e-06
5.90332e-05
2.64407e-05
2.48523e-05
6.02823e-05
-1.47977e-05
-5.42035e-05
0.000105687
-1.70453e-06
2.9366e-05
-4.64501e-06
6.77223e-05
-6.89875e-06
9.12138e-05
-6.41545e-06
9.96324e-05
-1.01113e-06
9.29795e-05
1.16235e-05
7.16703e-05
3.38832e-05
3.67736e-05
6.80764e-05
-9.34091e-06
0.000116067
-6.27879e-05
-0.0001168
0.000178663
-1.12475e-06
3.04908e-05
-2.33787e-06
6.89354e-05
-1.60833e-06
9.04843e-05
3.25293e-06
9.47711e-05
1.46128e-05
8.16197e-05
3.50251e-05
5.1258e-05
6.72139e-05
4.58486e-06
0.000113922
-5.60492e-05
0.000177514
-0.00012638
-0.000198435
0.000259149
-4.96175e-07
3.09869e-05
1.72996e-07
6.82663e-05
4.15314e-06
8.65041e-05
1.37874e-05
8.51368e-05
3.1634e-05
6.37731e-05
6.04999e-05
2.2392e-05
0.000103454
-3.83696e-05
0.000163715
-0.00011631
0.000244236
-0.0002069
-0.000300867
0.000346668
1.81078e-07
3.08059e-05
2.87724e-06
6.55701e-05
1.03716e-05
7.90097e-05
2.51619e-05
7.03466e-05
5.00065e-05
3.89285e-05
8.79695e-05
-1.5571e-05
0.000142467
-9.28672e-05
0.000217215
-0.000191058
0.000315844
-0.000305529
-0.000425666
0.000440643
9.04285e-07
2.99016e-05
5.77644e-06
6.06979e-05
1.70382e-05
6.7748e-05
3.73576e-05
5.00271e-05
6.96986e-05
6.58756e-06
0.000117379
-6.32512e-05
0.000184149
-0.000159637
0.000274222
-0.000281132
0.000391988
-0.000423295
-0.000574164
0.000540486
1.67565e-06
2.82259e-05
8.86649e-06
5.35071e-05
2.41456e-05
5.24689e-05
5.03611e-05
2.38116e-05
9.06888e-05
-3.37402e-05
0.000148695
-0.000121257
0.000228436
-0.000239379
0.000334589
-0.000387285
0.000472345
-0.00056105
-0.000747657
0.000645838
2.49478e-06
1.2145e-05
4.38569e-05
3.16854e-05
3.29284e-05
6.41569e-05
-8.65987e-06
0.000112957
-8.25404e-05
0.000181896
-0.000190196
0.000275299
-0.000332782
0.00039823
-0.000510215
0.000556638
-0.000719458
-0.000946948
0.000755929
1.56068e-05
3.16114e-05
3.96433e-05
8.89193e-06
7.8719e-05
-4.77356e-05
0.000136469
-0.000140291
0.000216953
-0.00027068
0.000324728
-0.000440557
0.000465132
-0.000650619
0.00064469
-0.000899016
-0.00117237
0.00087011
1.92418e-05
1.66431e-05
4.79929e-05
-1.98592e-05
9.3999e-05
-9.37417e-05
0.000161156
-0.000207448
0.000253796
-0.00036332
0.000376696
-0.000563457
0.000535353
-0.000809277
0.000736497
-0.00110016
-0.00142374
0.000987868
2.30328e-05
5.66905e-05
-5.3517e-05
0.000109913
-0.000146964
0.000186887
-0.000284423
0.000292268
-0.0004687
0.000431113
-0.000702302
0.00060902
-0.000987184
0.000832262
-0.0013234
-0.00170059
0.00110911
6.56704e-05
-9.22337e-05
0.000126329
-0.000207623
0.000213438
-0.000371532
0.000332057
-0.000587319
0.00048774
-0.000857985
0.000686453
-0.0011859
0.000932974
-0.00156992
-0.0020028
0.00123519
7.48439e-05
0.000143061
-0.000275839
0.000240455
-0.000468926
0.000372573
-0.000719437
0.000545805
-0.00103122
0.000767639
-0.00140773
0.00104377
-0.00184605
-0.00232753
0.00136849
0.000159874
0.000267459
-0.00057651
0.000412831
-0.000864809
0.000603224
-0.00122161
0.0008483
-0.00165281
0.00116742
-0.00216517
-0.00278926
0.00162915
0.000293924
-0.000693909
0.000451661
-0.00102255
0.000657114
-0.00142706
0.000919881
-0.00191557
0.0012555
-0.00250078
-0.00321724
0.00168348
0.000319438
0.000488299
-0.00119141
0.000706133
-0.0016449
0.000980607
-0.00219005
0.00132054
-0.00284072
-0.00362636
0.00172966
0.000522427
0.000750268
-0.00187274
0.00103256
-0.00247234
0.00137282
-0.00318098
-0.00402076
0.00176722
0.000789836
0.00107739
-0.0027599
0.00141633
-0.00351991
-0.00440311
0.00179868
0.00111594
0.00145243
-0.0038564
-0.00477501
0.00182433
0.00148147
-0.00513681
0.00184327
0.00185441
0.00150404
0.00419109
0.00513888
0.00185537
0.00148225
0.00385803
0.00477693
0.00184419
0.00111653
0.00276109
0.00145316
0.00352139
0.00440488
0.00182521
0.000790237
0.00187353
0.00107793
0.0024734
0.00141702
0.0031823
0.00402237
0.00179953
0.00052268
0.00119188
0.000750634
0.00164558
0.00103306
0.00219097
0.00137347
0.0028419
0.00362781
0.00176803
0.000319584
0.000694152
0.000488527
0.00102294
0.000706465
0.00142764
0.000981067
0.00191636
0.00132115
0.00250181
0.00321852
0.00173044
0.000294052
0.000576699
0.000451864
0.000865127
0.000657414
0.00122209
0.000920301
0.00165348
0.00125606
0.00216605
0.00279036
0.00168423
0.000159939
0.000275899
0.000267572
0.000469066
0.000413011
0.000719687
0.000603492
0.00103161
0.00084868
0.00140829
0.00116794
0.00184679
0.00232844
0.00162986
7.4871e-05
9.22258e-05
0.000143116
0.000207654
0.000240554
0.000371628
0.000372732
0.000587509
0.000546044
0.000858295
0.00076798
0.00118635
0.00104423
0.00157054
0.00200357
0.0013691
6.56934e-05
5.34944e-05
0.000126377
0.00014697
0.000213524
0.000284482
0.000332196
0.000468837
0.000487951
0.000702541
0.000686756
0.000987548
0.00093339
0.00132391
0.00170122
0.00123574
2.30397e-05
-1.66783e-05
5.671e-05
1.98241e-05
0.000109954
9.37263e-05
0.000186962
0.000207474
0.000292389
0.000363409
0.000431298
0.000563632
0.000609288
0.000809558
0.000832633
0.00110056
0.00142425
0.0011096
1.92475e-05
-3.16514e-05
4.80093e-05
-8.93769e-06
9.40341e-05
4.77016e-05
0.000161221
0.000140288
0.000253902
0.000270728
0.000376859
0.000440675
0.00053559
0.000650827
0.000736827
0.000899324
0.00117277
0.000988308
3.36201e-06
-2.57508e-05
1.56115e-05
-4.39009e-05
3.9657e-05
-3.29832e-05
7.87489e-05
8.60971e-06
0.000136524
8.25119e-05
0.000217045
0.000190207
0.00032487
0.00033285
0.00046534
0.000510357
0.000644981
0.000719683
0.000947252
0.000870501
2.49535e-06
-2.82461e-05
1.21488e-05
-5.35544e-05
3.16969e-05
-5.25313e-05
6.41822e-05
-2.38756e-05
0.000113004
3.36898e-05
0.000181975
0.000121236
0.000275423
0.000239403
0.000398411
0.000387368
0.000556893
0.000561201
0.000747872
0.000756274
1.67609e-06
-2.99222e-05
8.86964e-06
-6.07479e-05
2.41552e-05
-6.78169e-05
5.03826e-05
-5.0103e-05
9.07293e-05
-6.65694e-06
0.000148763
6.32024e-05
0.000228543
0.000159623
0.000334748
0.000281163
0.000472568
0.00042338
0.000574301
0.000646139
9.0462e-07
-3.08268e-05
5.77901e-06
-6.56223e-05
1.70462e-05
-7.90841e-05
3.73758e-05
-7.04326e-05
6.97331e-05
-3.90142e-05
0.000117438
1.54979e-05
0.000184242
9.28189e-05
0.00027436
0.000191045
0.000392183
0.000305557
0.000425735
0.000540748
1.81333e-07
-3.10082e-05
2.87934e-06
-6.83203e-05
1.03784e-05
-8.65831e-05
2.51772e-05
-8.52314e-05
5.0036e-05
-6.3873e-05
8.802e-05
-2.24861e-05
0.000142547
3.82918e-05
0.000217335
0.000116258
0.000316014
0.000206878
0.000300872
0.000440877
-4.9598e-07
-3.05122e-05
1.74706e-07
-6.8991e-05
4.15875e-06
-9.05672e-05
1.38004e-05
-9.48731e-05
3.16591e-05
-8.17316e-05
6.05432e-05
-5.13702e-05
0.000103523
-4.68808e-06
0.000163818
5.59627e-05
0.000244382
0.000126314
0.00019839
0.000346865
-1.12459e-06
-2.93876e-05
-2.33645e-06
-6.77791e-05
-1.60363e-06
-9.13e-05
3.26389e-06
-9.97407e-05
1.46341e-05
-9.31018e-05
3.50619e-05
-7.17981e-05
6.72725e-05
-3.68986e-05
0.00011401
9.22525e-06
0.000177639
6.26854e-05
0.000116711
0.000259318
-1.70441e-06
-2.76832e-05
-4.64384e-06
-6.48397e-05
-6.89484e-06
-8.9049e-05
-6.40624e-06
-0.000100229
-9.93163e-07
-9.85149e-05
1.16547e-05
-8.44459e-05
3.39329e-05
-5.91768e-05
6.81507e-05
-2.49926e-05
0.000116172
1.46639e-05
5.4077e-05
0.000178806
-2.23319e-06
-2.545e-05
-6.74082e-06
-6.03321e-05
-1.16958e-05
-8.4094e-05
-1.51749e-05
-9.67502e-05
-1.51637e-05
-9.85261e-05
-9.58005e-06
-9.00296e-05
3.6666e-06
-7.24235e-05
2.6503e-05
-4.7829e-05
6.03705e-05
-1.92036e-05
8.64235e-06
0.000105805
-2.708e-06
-2.2742e-05
-8.61673e-06
-5.44233e-05
-1.59834e-05
-7.67273e-05
-2.29995e-05
-8.97341e-05
-2.7806e-05
-9.37196e-05
-2.8529e-05
-8.93065e-05
-2.33512e-05
-7.76013e-05
-1.06644e-05
-6.05158e-05
1.08092e-05
-4.06771e-05
-2.12722e-05
4.07237e-05
-3.12527e-06
-1.96167e-05
-1.02592e-05
-4.72894e-05
-1.97308e-05
-6.72557e-05
-2.98324e-05
-7.96325e-05
-3.88423e-05
-8.47096e-05
-4.50709e-05
-8.30779e-05
-4.69377e-05
-7.57345e-05
-4.31292e-05
-6.43243e-05
-3.28429e-05
-5.09634e-05
-3.81223e-05
-1.59929e-05
-3.4811e-06
-1.61356e-05
-1.16548e-05
-3.91157e-05
-2.29098e-05
-5.60008e-05
-3.56237e-05
-6.69185e-05
-4.81925e-05
-7.21409e-05
-5.90831e-05
-7.21873e-05
-6.69146e-05
-6.7903e-05
-7.06082e-05
-6.06308e-05
-6.95459e-05
-5.20256e-05
-4.40821e-05
-6.35862e-05
-3.77153e-06
-1.23641e-05
-1.27905e-05
-3.00967e-05
-2.54928e-05
-4.32986e-05
-4.03254e-05
-5.20859e-05
-5.57799e-05
-5.66864e-05
-7.04503e-05
-5.75168e-05
-8.31153e-05
-5.52381e-05
-9.28747e-05
-5.08713e-05
-9.92617e-05
-4.56387e-05
-4.10387e-05
-0.000102305
-3.99297e-06
-8.37112e-06
-1.36543e-05
-2.04354e-05
-2.74547e-05
-2.94981e-05
-4.3894e-05
-3.56467e-05
-6.15363e-05
-3.9044e-05
-7.9072e-05
-3.99812e-05
-9.5399e-05
-3.89111e-05
-0.000109749
-3.65209e-05
-0.000121772
-3.36161e-05
-3.11982e-05
-0.000131612
-4.1424e-06
-4.22872e-06
-1.4236e-05
-1.03417e-05
-2.8775e-05
-1.49592e-05
-4.62942e-05
-1.81275e-05
-6.54067e-05
-1.99315e-05
-8.48674e-05
-2.05204e-05
-0.000103654
-2.01246e-05
-0.000121085
-1.90894e-05
-0.000136887
-1.78149e-05
-1.68031e-05
-0.000151282
-4.21768e-06
-1.45288e-05
-2.9439e-05
-4.75009e-05
-6.73523e-05
-8.77804e-05
-0.000107802
-0.000126781
-0.000144479
-0.000161159
-0.000165636
4.37612e-06
9.46418e-08
-0.000168111
2.38109e-06
9.38853e-08
-0.000167441
-7.58339e-07
8.85543e-08
-0.000163019
-4.50942e-06
8.72955e-08
-0.000154291
-8.81092e-06
8.30475e-08
-0.000140949
-1.34195e-05
7.72172e-08
-0.00012287
-1.81494e-05
7.02166e-08
-0.000100078
-2.2854e-05
6.2193e-08
-7.27131e-05
-2.74184e-05
5.33126e-08
-4.09977e-05
-3.17592e-05
4.37753e-08
-5.21086e-06
-3.58207e-05
3.38365e-08
3.43358e-05
-3.95704e-05
2.37786e-08
7.73161e-05
-4.29942e-05
1.39215e-08
0.000123402
-4.60907e-05
4.6126e-09
0.000172274
-4.88678e-05
-3.77938e-09
0.000223623
-5.13387e-05
-1.08723e-08
0.000277159
-5.35196e-05
-1.62778e-08
0.000332607
-5.54283e-05
-1.96127e-08
0.00038971
-5.70822e-05
-2.05105e-08
0.000448227
-5.84985e-05
-1.86361e-08
0.000507934
-5.96931e-05
-1.37041e-08
0.00056862
-6.06808e-05
-5.49671e-09
0.000630089
-6.14753e-05
6.11e-09
0.000692157
-6.2089e-05
2.11258e-08
0.000754651
-6.25334e-05
3.94113e-08
0.000817409
-6.28187e-05
6.06565e-08
0.00088028
-6.29548e-05
8.4346e-08
0.00094312
-6.29501e-05
1.09735e-07
0.0010058
-6.28139e-05
1.35824e-07
0.00106819
-6.25516e-05
1.61345e-07
0.00113018
-6.21767e-05
1.84749e-07
0.00119166
-6.16828e-05
2.04229e-07
0.00125255
-6.11092e-05
2.1771e-07
0.00131272
-6.03933e-05
2.23016e-07
0.0013722
-5.96984e-05
2.17626e-07
0.00143071
-5.87052e-05
1.9963e-07
0.00148865
-5.81118e-05
1.65775e-07
0.00154507
-5.65353e-05
1.16634e-07
0.0016018
-5.67756e-05
4.52168e-08
0.00165527
-5.34347e-05
-3.71488e-08
0.0017122
-5.67695e-05
-1.55958e-07
-4.8628e-05
-2.69968e-07
-0.000155515
8.58933e-06
-0.000157702
4.5686e-06
-0.000156758
-1.70238e-06
-0.000152077
-9.19058e-06
-0.000143124
-1.77643e-05
-0.0001296
-2.69428e-05
-0.000111393
-3.63569e-05
-8.85307e-05
-4.57162e-05
-6.11552e-05
-5.47939e-05
-2.94883e-05
-6.34262e-05
6.1948e-06
-7.15037e-05
4.55875e-05
-7.89631e-05
8.837e-05
-8.57767e-05
0.000134221
-9.1942e-05
0.000182827
-9.74739e-05
0.000233887
-0.000102398
0.000287115
-0.000106747
0.00034224
-0.000110554
0.000399012
-0.000113854
0.000457192
-0.000116679
0.00051656
-0.000119061
0.000576909
-0.000121029
0.000638043
-0.000122609
0.000699781
-0.000123827
0.000761951
-0.000124704
0.000824394
-0.000125262
0.00088696
-0.00012552
0.000949505
-0.000125496
0.0010119
-0.000125209
0.00107402
-0.000124672
0.00113576
-0.000123912
0.00119699
-0.000122918
0.00125765
-0.000121773
0.00131761
-0.000120351
0.0013769
-0.000118983
0.00143522
-0.00011703
0.001493
-0.000115895
0.00154928
-0.000112807
0.00160588
-0.00011338
0.00165925
-0.000106799
0.00171608
-0.000113603
-9.74984e-05
-0.000135355
1.22986e-05
-0.000136976
6.18922e-06
-0.000135489
-3.18898e-06
-0.000130296
-1.43837e-05
-0.000120898
-2.71628e-05
-0.000107018
-4.08226e-05
-8.85593e-05
-5.48154e-05
-6.5562e-05
-6.87135e-05
-3.81709e-05
-8.2185e-05
-6.60505e-06
-9.4992e-05
2.88666e-05
-0.000106975
6.7949e-05
-0.000118046
0.000110335
-0.000128162
0.000155716
-0.000137323
0.000203792
-0.00014555
0.000254274
-0.00015288
0.000306888
-0.00015936
0.000361373
-0.000165039
0.000417486
-0.000169967
0.000474997
-0.000174191
0.000533693
-0.000177756
0.00059337
-0.000180706
0.000653839
-0.000183079
0.000714923
-0.00018491
0.000776453
-0.000186234
0.000838272
-0.000187081
0.000900232
-0.00018748
0.000962195
-0.000187458
0.00102403
-0.000187044
0.00108562
-0.000186257
0.00114684
-0.000185139
0.0012076
-0.000183674
0.00126781
-0.000181986
0.00132735
-0.000179888
0.00138624
-0.000177879
0.00144421
-0.000174999
0.00150168
-0.000173359
0.00155766
-0.000168792
0.00161402
-0.000169737
0.00166717
-0.000159951
0.00172382
-0.000170256
-0.000146316
-0.000105336
1.52814e-05
-0.000106128
6.98174e-06
-0.000103841
-5.47579e-06
-9.7898e-05
-2.03272e-05
-8.78473e-05
-3.72135e-05
-7.34478e-05
-5.52221e-05
-5.46281e-05
-7.36351e-05
-3.14427e-05
-9.18989e-05
-4.0412e-06
-0.000109587
2.73595e-05
-0.000126393
6.25047e-05
-0.000142121
0.000101115
-0.000156656
0.000142901
-0.000169949
0.000187577
-0.000181999
0.00023486
-0.000192833
0.000284479
-0.0002025
0.000336178
-0.000211059
0.000389711
-0.000218572
0.000444846
-0.000225102
0.000501366
-0.000230711
0.000559065
-0.000235455
0.000617748
-0.00023939
0.000677235
-0.000242565
0.000737351
-0.000245027
0.000797935
-0.000246818
0.000858833
-0.000247979
0.000919901
-0.000248549
0.000981003
-0.000248561
0.00104201
-0.000248055
0.00110281
-0.000247054
0.00116329
-0.000245618
0.00122334
-0.000243724
0.00128289
-0.000241537
0.00134181
-0.000238808
0.00140014
-0.000236207
0.00145759
-0.000232446
0.00151458
-0.000230354
0.00157015
-0.000224356
0.00162614
-0.000225734
0.00167899
-0.000212798
0.00173538
-0.000226648
-0.000195062
-6.57239e-05
1.73557e-05
-6.54391e-05
6.69699e-06
-6.21169e-05
-8.79804e-06
-5.5206e-05
-2.72381e-05
-4.43142e-05
-4.81052e-05
-2.92511e-05
-7.02853e-05
-9.97848e-06
-9.29077e-05
1.34281e-05
-0.000115305
4.08145e-05
-0.000136973
7.19737e-05
-0.000157552
0.000106665
-0.000176812
0.000144632
-0.000194623
0.000185613
-0.000210929
0.000229345
-0.000225731
0.000275574
-0.000239062
0.000324052
-0.000250979
0.000374543
-0.00026155
0.000426822
-0.00027085
0.000480672
-0.000278952
0.00053589
-0.000285929
0.000592283
-0.000291848
0.000649667
-0.000296774
0.000707868
-0.000300766
0.00076672
-0.000303879
0.000826069
-0.000306167
0.000885767
-0.000307676
0.000945673
-0.000308455
0.00100566
-0.000308544
0.00106559
-0.000307992
0.00112537
-0.000306829
0.00118488
-0.000305127
0.00124401
-0.000302858
0.00130271
-0.000300232
0.00136083
-0.00029693
0.00141842
-0.000293801
0.0014752
-0.000289221
0.00153159
-0.000286748
0.00158662
-0.000279381
0.00164216
-0.000281271
0.00169462
-0.000265256
0.00175068
-0.000282711
-0.000243727
-1.67197e-05
1.80037e-05
-1.52417e-05
5.21901e-06
-1.06996e-05
-1.33402e-05
-2.61616e-06
-3.53216e-05
9.26424e-06
-5.99856e-05
2.5104e-05
-8.61251e-05
4.4892e-05
-0.000112696
6.85284e-05
-0.000138942
9.58542e-05
-0.000164299
0.000126673
-0.000188371
0.000160767
-0.000210906
0.00019791
-0.000231765
0.000237871
-0.00025089
0.000280422
-0.000268282
0.000325338
-0.000283979
0.000372403
-0.000298043
0.000421405
-0.000310552
0.00047214
-0.000321586
0.000524414
-0.000331226
0.000578039
-0.000339554
0.000632835
-0.000346645
0.000688633
-0.000352571
0.000745267
-0.0003574
0.000802583
-0.000361195
0.000860431
-0.000364015
0.000918671
-0.000365916
0.000977168
-0.000366952
0.0010358
-0.000367172
0.00109444
-0.000366633
0.00115297
-0.000365368
0.00121131
-0.000363466
0.00126935
-0.000360891
0.00132701
-0.000357896
0.00138418
-0.000354096
0.00144089
-0.000350517
0.00149686
-0.000345193
0.00155254
-0.000342427
0.00160693
-0.000333769
0.00166193
-0.000336268
0.00171393
-0.00031726
0.00176961
-0.000338394
-0.000292311
4.10412e-05
1.75882e-05
4.39934e-05
2.26687e-06
4.99293e-05
-1.92761e-05
5.93206e-05
-4.47129e-05
7.23435e-05
-7.30085e-05
8.90519e-05
-0.000102834
0.000109387
-0.000133031
0.000133228
-0.000162782
0.000160414
-0.000191485
0.000190768
-0.000218724
0.000224102
-0.00024424
0.000260225
-0.000267888
0.000298946
-0.000289612
0.000340076
-0.000309412
0.000383427
-0.00032733
0.000428815
-0.000343431
0.000476058
-0.000357795
0.000524979
-0.000370506
0.000575404
-0.000381651
0.000627165
-0.000391315
0.000680099
-0.000399579
0.000734049
-0.000406521
0.000788863
-0.000412214
0.000844394
-0.000416726
0.000900503
-0.000420124
0.000957055
-0.000422468
0.00101392
-0.000423821
0.00107099
-0.000424236
0.00112813
-0.000423778
0.00118525
-0.000422485
0.00124224
-0.000420461
0.00129901
-0.000417659
0.0013555
-0.000414381
0.00141157
-0.000410168
0.00146729
-0.000406233
0.00152235
-0.000400256
0.00157722
-0.000397297
0.00163089
-0.000387441
0.00168529
-0.000390662
0.00173679
-0.000368766
0.00179206
-0.000393662
-0.00034083
0.000107354
1.5921e-05
0.00011172
-2.09895e-06
0.000119241
-2.67967e-05
0.000130088
-5.55598e-05
0.000144333
-8.72537e-05
0.000161947
-0.000120448
0.000182814
-0.000153898
0.00020679
-0.000186758
0.000233721
-0.000218417
0.000263455
-0.000248458
0.000295841
-0.000276626
0.000330734
-0.000302781
0.000367987
-0.000326865
0.000407457
-0.000348881
0.000448995
-0.000368868
0.000492454
-0.000386891
0.000537686
-0.000403026
0.00058454
-0.00041736
0.000632867
-0.000429979
0.00068252
-0.000440968
0.000733353
-0.000450412
0.000785224
-0.000458392
0.000837992
-0.000464982
0.000891523
-0.000470257
0.000945686
-0.000474286
0.00100035
-0.000477136
0.00105541
-0.000478874
0.00111073
-0.000479558
0.00116621
-0.000479262
0.00122175
-0.000478026
0.00127726
-0.000475968
0.00133264
-0.000473033
0.00138782
-0.000469569
0.0014427
-0.000465042
0.00149732
-0.000460856
0.00155139
-0.000454328
0.00160539
-0.000451295
0.00165829
-0.000440344
0.00171205
-0.000444416
0.00176303
-0.000419751
0.00181788
-0.000448506
-0.000389315
0.000181745
1.2839e-05
0.000187414
-7.76752e-06
0.000196667
-3.60494e-05
0.000209052
-6.79448e-05
0.000224562
-0.000102764
0.000243069
-0.000138954
0.000264397
-0.000175226
0.000288387
-0.000210749
0.000314902
-0.000244931
0.000343823
-0.000277379
0.000375049
-0.000307852
0.000408484
-0.000336216
0.000444035
-0.000362416
0.000481605
-0.000386451
0.000521091
-0.000408354
0.000562384
-0.000428184
0.00060537
-0.000446013
0.000649929
-0.000461919
0.000695936
-0.000475986
0.000743266
-0.000488298
0.000791791
-0.000498937
0.000841383
-0.000507983
0.000891915
-0.000515515
0.000943265
-0.000521607
0.000995309
-0.000526331
0.00104793
-0.000529758
0.00110102
-0.000531959
0.00115446
-0.000532998
0.00120815
-0.000532954
0.00126199
-0.00053187
0.0013159
-0.000529879
0.00136979
-0.000526914
0.00142359
-0.000523374
0.00147719
-0.000518642
0.00153066
-0.000514324
0.00158369
-0.000507361
0.00163678
-0.000504382
0.00168889
-0.000492454
0.00174199
-0.000497521
0.00179246
-0.000470221
0.0018469
-0.000502939
-0.000437817
0.000263439
8.54927e-06
0.00027071
-1.5039e-05
0.000281624
-4.69637e-05
0.000295567
-8.18874e-05
0.000312318
-0.000119515
0.000331633
-0.000158269
0.000353283
-0.000196876
0.000377106
-0.000234571
0.000402991
-0.000270816
0.000430868
-0.000305257
0.000460692
-0.000337676
0.000492426
-0.00036795
0.000526033
-0.000396023
0.000561467
-0.000421885
0.000598671
-0.000445559
0.000637579
-0.000467091
0.000678108
-0.000486542
0.00072017
-0.00050398
0.000763665
-0.000519481
0.000808489
-0.000533122
0.000854532
-0.00054498
0.000901683
-0.000555134
0.000949827
-0.000563659
0.000998853
-0.000570632
0.00104865
-0.000576125
0.0010991
-0.000580211
0.0011501
-0.000582965
0.00120156
-0.000584453
0.00125337
-0.000584761
0.00130543
-0.000583935
0.00135767
-0.000582122
0.00141
-0.00057924
0.00146237
-0.000575744
0.00151466
-0.000570929
0.00156694
-0.000566608
0.00161892
-0.000559335
0.00167109
-0.000556553
0.00172241
-0.000543777
0.00177488
-0.000549994
0.00182487
-0.000520208
0.00187894
-0.000557003
-0.000486403
0.000352029
3.18852e-06
0.000360899
-2.39091e-05
0.000373496
-5.95611e-05
0.000388953
-9.73447e-05
0.000406842
-0.000137403
0.000426798
-0.000178225
0.000448551
-0.00021863
0.000471952
-0.000257972
0.000496936
-0.0002958
0.000523495
-0.000331815
0.000551647
-0.000365829
0.000581422
-0.000397725
0.00061284
-0.000427441
0.000645909
-0.000454953
0.000680618
-0.000480268
0.00071694
-0.000503413
0.000754827
-0.00052443
0.00079422
-0.000543373
0.000835045
-0.000560306
0.000877216
-0.000575294
0.000920644
-0.000588408
0.000965229
-0.00059972
0.00101087
-0.000609303
0.00105747
-0.00061723
0.00110492
-0.000623576
0.00115312
-0.000628413
0.00120198
-0.000631817
0.00125138
-0.00063386
0.00130125
-0.000634631
0.00135149
-0.000634177
0.00140204
-0.000632662
0.00145278
-0.000629989
0.00150371
-0.000626665
0.00155467
-0.000621899
0.00160578
-0.000617715
0.00165672
-0.000610269
0.001708
-0.000607836
0.00175857
-0.000594353
0.00181047
-0.000601886
0.00186003
-0.000569775
0.0019138
-0.000610767
-0.000535166
0.000447064
-3.23232e-06
0.000457437
-3.42826e-05
0.000471658
-7.37817e-05
0.000488511
-0.000114198
0.00050734
-0.000156232
0.000527667
-0.000198553
0.000549209
-0.000240172
0.000571855
-0.000280618
0.000595607
-0.000319552
0.00062053
-0.000356738
0.000646717
-0.000392016
0.000674263
-0.000425271
0.000703249
-0.000456426
0.000733734
-0.000485438
0.000765752
-0.000512286
0.000799313
-0.000536974
0.000834403
-0.00055952
0.000870989
-0.000579959
0.00090902
-0.000598336
0.000948431
-0.000614705
0.000989148
-0.000629124
0.00103109
-0.000641658
0.00107416
-0.000652374
0.00111827
-0.000661342
0.00116333
-0.000668634
0.00120924
-0.000674323
0.00125591
-0.000678487
0.00130325
-0.000681198
0.00135117
-0.000682552
0.00139959
-0.000682595
0.00144843
-0.000681506
0.00149762
-0.000679174
0.00154711
-0.000676163
0.0015968
-0.000671584
0.00164677
-0.000667688
0.00169671
-0.000660213
0.00174717
-0.000658292
0.00179707
-0.000644252
0.00184846
-0.000653276
0.0018977
-0.000619015
0.00195127
-0.000664332
-0.000584216
0.000548017
-1.07639e-05
0.000559771
-4.60363e-05
0.000575498
-8.9509e-05
0.00059353
-0.000132229
0.000612978
-0.00017568
0.000633285
-0.00021886
0.000654194
-0.00026108
0.000675667
-0.000302092
0.000697794
-0.000341679
0.000720727
-0.000379671
0.000744635
-0.000415924
0.000769678
-0.000450314
0.000795995
-0.000482744
0.000823694
-0.000513136
0.000852848
-0.000541441
0.000883502
-0.000567628
0.000915673
-0.000591691
0.000949351
-0.000613637
0.000984505
-0.000633491
0.00102109
-0.00065129
0.00105904
-0.000667078
0.0010983
-0.000680911
0.00113877
-0.000692847
0.00118038
-0.000702952
0.00122304
-0.000711295
0.00126666
-0.000717947
0.00131116
-0.000722988
0.00135646
-0.000726489
0.00140246
-0.000728554
0.00144909
-0.000729226
0.00149628
-0.000728702
0.00154396
-0.000726851
0.0015921
-0.000724298
0.00164057
-0.000720056
0.00168949
-0.000716605
0.00173853
-0.000709256
0.00178825
-0.000708018
0.00183758
-0.000693581
0.00188859
-0.000704278
0.00193762
-0.000668054
0.00199112
-0.000717827
-0.000633689
0.000654119
-1.90448e-05
0.000667352
-5.92702e-05
0.000684416
-0.000106572
0.00070328
-0.000151093
0.000722875
-0.000195276
0.000742625
-0.00023861
0.000762361
-0.000280815
0.00078216
-0.00032189
0.000802217
-0.000361737
0.000822775
-0.000400229
0.000844078
-0.000437227
0.000866349
-0.000472585
0.000889776
-0.00050617
0.000914508
-0.000537868
0.000940656
-0.000567589
0.000968293
-0.000595265
0.000997459
-0.000620857
0.00102817
-0.000644345
0.0010604
-0.000665728
0.00109414
-0.000685024
0.00112932
-0.000702261
0.00116589
-0.000717483
0.00120379
-0.000730739
0.00124292
-0.000742089
0.00128322
-0.000751596
0.00132461
-0.000759332
0.001367
-0.000765375
0.0014103
-0.000769798
0.00145446
-0.000772708
0.00149938
-0.000774149
0.00154501
-0.000774334
0.00159128
-0.000773113
0.00163815
-0.000771174
0.00168552
-0.000767422
0.0017335
-0.000764582
0.00178176
-0.000757521
0.00183089
-0.000757144
0.00187978
-0.000742477
0.00193054
-0.000755038
0.00197954
-0.000717048
0.00203312
-0.000771416
-0.000683741
0.000764954
-2.80698e-05
0.000779725
-7.4041e-05
0.000797855
-0.000124703
0.000817017
-0.000170255
0.000836084
-0.000214343
0.000854572
-0.000257098
0.000872475
-0.000298719
0.000890021
-0.000339436
0.000907521
-0.000379236
0.000925303
-0.000418011
0.00094368
-0.000455603
0.000962924
-0.000491829
0.000983264
-0.000526511
0.00100488
-0.000559487
0.00102792
-0.000590623
0.00105246
-0.000619812
0.00107858
-0.000646976
0.0011063
-0.000672064
0.00113562
-0.00069505
0.00116653
-0.000715928
0.00119898
-0.00073471
0.00123292
-0.000751425
0.00126829
-0.000766112
0.00130503
-0.000778824
0.00134305
-0.00078962
0.00138229
-0.000798569
0.00142266
-0.000805747
0.00146409
-0.00081123
0.00150651
-0.000815129
0.00154985
-0.000817484
0.00159404
-0.00081853
0.00163902
-0.000818092
0.00168478
-0.000816927
0.00173118
-0.000813828
0.00177837
-0.000811769
0.00182601
-0.000805164
0.0018747
-0.000805834
0.00192334
-0.000791115
0.00197403
-0.000805731
0.00202317
-0.000766184
0.00207704
-0.000825288
-0.000734552
0.000880116
-3.80755e-05
0.000896598
-9.05233e-05
0.000915318
-0.000143423
0.000933947
-0.000188883
0.000951553
-0.000231949
0.000967893
-0.000273438
0.000983195
-0.000314021
0.000997853
-0.000354095
0.00101229
-0.00039367
0.0010269
-0.000432622
0.00104205
-0.00047075
0.00105804
-0.000507821
0.00107513
-0.000543603
0.00109353
-0.000577884
0.00111338
-0.000610479
0.00113481
-0.00064124
0.00115788
-0.000670049
0.00118264
-0.000696823
0.0012091
-0.000721505
0.00123724
-0.000744068
0.00126703
-0.000764506
0.00129844
-0.000782831
0.0013314
-0.000799072
0.00136585
-0.000813274
0.00140172
-0.000825491
0.00143894
-0.000835788
0.00147744
-0.000844244
0.00151714
-0.00085093
0.00155797
-0.000855965
0.00159988
-0.000859388
0.0016428
-0.000861451
0.00168666
-0.000861956
0.00173147
-0.00086173
0.00177709
-0.000859452
0.00182367
-0.000858352
0.00187089
-0.000852378
0.00191934
-0.000854283
0.00196792
-0.000839697
0.00201875
-0.000856563
0.00206825
-0.00081568
0.00212262
-0.000879665
-0.000786321
0.000999496
-4.97027e-05
0.00101783
-0.000108857
0.00103627
-0.000161865
0.00105313
-0.000205738
0.00106804
-0.000246865
0.00108118
-0.000286575
0.00109303
-0.000325875
0.00110415
-0.000365208
0.00111502
-0.000404543
0.00112609
-0.000443695
0.00113775
-0.000482405
0.00115031
-0.000520381
0.00116404
-0.000557334
0.00117915
-0.000592998
0.00119582
-0.000627142
0.00121415
-0.00065957
0.00123422
-0.000690127
0.0012561
-0.000718694
0.00127978
-0.000745189
0.00130527
-0.000769558
0.00133254
-0.000791775
0.00136155
-0.000811839
0.00139224
-0.000829768
0.00142456
-0.000845596
0.00145845
-0.000859375
0.00149382
-0.000871164
0.00153062
-0.000881042
0.00156877
-0.000889082
0.00160821
-0.000895407
0.00164888
-0.000900054
0.00169072
-0.000903294
0.00173367
-0.000904907
0.00177774
-0.000905791
0.00182279
-0.000904505
0.00186898
-0.000904547
0.00191599
-0.000899383
0.00196442
-0.000902719
0.00201318
-0.000888456
0.00206439
-0.000907771
0.00211449
-0.000865782
0.00216962
-0.000934795
-0.000839269
0.00112325
-6.38456e-05
0.00114333
-0.000128939
0.00116006
-0.000178596
0.00117338
-0.000219056
0.00118407
-0.000257554
0.00119282
-0.000295329
0.00120036
-0.000333409
0.00120729
-0.000372145
0.00121416
-0.000411405
0.00122138
-0.000450919
0.00122934
-0.000490363
0.00123834
-0.000529386
0.00124866
-0.000567646
0.00126048
-0.000604827
0.00127399
-0.000640648
0.00128929
-0.000674874
0.00130648
-0.000707309
0.00132559
-0.000737804
0.00134664
-0.000766244
0.00136964
-0.000792555
0.00139455
-0.000816691
0.00142135
-0.000838634
0.00144997
-0.000858392
0.00148037
-0.000875991
0.00151247
-0.000891477
0.00154621