/*--------------------------------*- C++ -*----------------------------------*\
  =========                 |
  \\      /  F ield         | OpenFOAM: The Open Source CFD Toolbox
   \\    /   O peration     | Website:  https://openfoam.org
    \\  /    A nd           | Version:  7
     \\/     M anipulation  |
\*---------------------------------------------------------------------------*/
FoamFile
{
    version     2.0;
    format      ascii;
    class       surfaceScalarField;
    location    "15";
    object      phi;
}
// * * * * * * * * * * * * * * * * * * * * * * * * * * * * * * * * * * * * * //

dimensions      [0 3 -1 0 0 0 0];

internalField   nonuniform List<scalar> 
16357
(
0.000170913
0.000172156
0.0001733
0.000174326
-8.5057e-07
0.000175177
0.00033316
-5.77044e-07
0.000175754
0.000320185
-1.39083e-07
0.000175893
0.000304218
4.04611e-07
0.000175488
0.000284683
1.13184e-06
0.000174356
2.48442e-05
0.00026097
0.000140303
2.09333e-06
0.000172263
3.06376e-05
0.000232426
6.49959e-05
3.30803e-06
0.000168955
3.73999e-05
0.000198334
0.000124847
-2.24512e-05
-0.000511546
4.79495e-06
0.00016416
4.51941e-05
0.000157935
0.000146108
-0.000123365
-0.000701772
6.56951e-06
0.000157591
5.40647e-05
0.00011044
0.000169749
-0.000239048
-0.000915417
8.64305e-06
0.000148947
6.40379e-05
5.50451e-05
0.000195721
-0.000370731
0.00043323
-0.00115293
-0.00225407
1.1023e-05
0.000137924
7.51207e-05
-9.05259e-06
0.000223891
-0.000519501
0.000484965
-0.001414
-0.00262267
1.37133e-05
0.000124211
8.73011e-05
-8.26404e-05
0.000254025
-0.000686225
0.000537492
-0.00169747
0.000919679
-0.00300486
-0.00439316
1.67147e-05
0.000107496
0.000100547
-0.000166472
0.000285777
-0.000871456
0.000589541
-0.00200123
0.000979409
-0.00339473
0.00138811
-0.00480186
-0.00603196
2.0025e-05
8.74714e-05
0.000114802
-0.000261249
0.000318678
-0.00107533
0.000639766
-0.00232232
0.00103129
-0.00378625
0.00142246
-0.00519302
-0.00637484
2.36396e-05
6.38318e-05
0.000129981
-0.00036759
0.000352146
-0.0012975
0.000686846
-0.00265702
0.0010743
-0.0041737
0.00144415
-0.00556288
0.00175745
-0.00668813
-0.00755232
2.75512e-05
3.62806e-05
0.000145964
-0.000486003
0.000385506
-0.00153704
0.000729583
-0.0030011
0.00110784
-0.00455196
0.00145381
-0.00590885
0.00173791
-0.00697223
0.00196075
-0.00777516
-0.00840111
3.17501e-05
4.53055e-06
0.000162586
-0.000616839
0.000418027
-0.00179248
0.000766982
-0.00335005
0.00113175
-0.00491673
0.00145232
-0.00622942
0.00170825
-0.00722816
0.00190617
-0.00797307
0.00206356
-0.0085585
-0.00906644
3.62237e-05
-3.16932e-05
0.000179636
-0.000760252
0.000448966
-0.00206181
0.000798304
-0.00369939
0.00114618
-0.0052646
0.00144071
-0.00652396
0.00166995
-0.0074574
0.00184529
-0.00814841
0.00198535
-0.00869856
0.00210631
-0.0091874
-0.00966364
4.0956e-05
-7.26492e-05
0.000196858
-0.000916154
0.000477608
-0.00234256
0.000823076
-0.00404486
0.00115154
-0.00559306
0.00142009
-0.00679251
0.00162436
-0.00766167
0.00177935
-0.00830341
0.00190402
-0.00882323
0.00201324
-0.00929661
0.0021164
-0.0097668
-0.0102566
4.59258e-05
-0.000118575
0.000213959
-0.00108419
0.000503311
-0.00263191
0.000841086
-0.00438263
0.00114842
-0.0059004
0.00139157
-0.00703565
0.0015727
-0.0078428
0.0017094
-0.00844011
0.00182031
-0.00893415
0.00191881
-0.0093951
0.00201273
-0.00986072
0.00210535
-0.0103492
-0.0108627
5.11043e-05
-0.000169679
0.000230623
-0.00126371
0.000525538
-0.00292683
0.00085234
-0.00470943
0.00113753
-0.00618559
0.0013562
-0.00725432
0.00151606
-0.00800266
0.00163632
-0.00856037
0.00173482
-0.00903265
0.00182336
-0.00948365
0.00190841
-0.00994576
0.00199246
-0.0104333
0.00207756
-0.0109478
-0.0115045
0.00216158
5.64527e-05
-0.000226132
0.000246531
-0.00145378
0.000543881
-0.00322418
0.000857028
-0.00502258
0.00111961
-0.00644817
0.00131501
-0.00744972
0.00145538
-0.00814304
0.00156081
-0.0086658
0.001648
-0.00911983
0.00172719
-0.00956284
0.00180361
-0.0100222
0.00187917
-0.0105089
0.00195545
-0.0110241
-0.0115795
0.00203052
6.19189e-05
-0.000288051
0.00026137
-0.00165323
0.000558071
-0.00352088
0.00085547
-0.00531998
0.00109544
-0.00668814
0.00126889
-0.00762317
0.00139147
-0.00826562
0.00148347
-0.0087578
0.00156023
-0.00919659
0.0016305
-0.00963311
0.00169847
-0.0100902
0.00176556
-0.0105759
0.00183303
-0.0110916
-0.0116456
0.00189911
6.74373e-05
-0.000355488
0.000274847
-0.00186064
0.000567972
-0.003814
0.000848082
-0.00560009
0.00106579
-0.00690585
0.00121868
-0.00777606
0.00132503
-0.00837197
0.00140478
-0.00883755
0.0014718
-0.00926361
0.00153347
-0.00969478
0.00159309
-0.0101498
0.00165174
-0.0106346
0.00171039
-0.0111502
-0.0117027
0.00176744
7.29294e-05
-0.000428418
0.000286704
-0.00207442
0.000573573
-0.00410087
0.000835335
-0.00586185
0.00103138
-0.0071019
0.00116512
-0.00790979
0.00125662
-0.00846347
0.00132512
-0.00890605
0.00138294
-0.00932143
0.00143623
-0.00974807
0.00148758
-0.0102011
0.00153779
-0.0106848
0.00158761
-0.0112
-0.0117507
0.00163562
7.83067e-05
-0.000506724
0.00029672
-0.00229283
0.000574965
-0.00437912
0.000817731
-0.00610462
0.000992906
-0.00727708
0.00110884
-0.00802573
0.00118674
-0.00854137
0.00124479
-0.0089641
0.00129383
-0.00937046
0.00133891
-0.00979315
0.00138203
-0.0102443
0.0014238
-0.0107266
0.00146479
-0.011241
-0.0117896
0.00150372
8.34759e-05
-0.0005902
0.000304721
-0.00251408
0.000572321
-0.00464672
0.00079578
-0.00632808
0.000950987
-0.00743228
0.00105041
-0.00812515
0.00111578
-0.00860675
0.00116406
-0.00901237
0.00120462
-0.00941103
0.0012416
-0.00983013
0.00127653
-0.0102792
0.00130985
-0.0107599
0.00134201
-0.0112732
-0.0118195
0.00137185
8.83429e-05
-0.000678543
0.000310585
-0.00273632
0.000565869
-0.004902
0.000769988
-0.0065322
0.000906196
-0.00756849
0.000990301
-0.00820925
0.00104409
-0.00866053
0.00108312
-0.0090514
0.00111545
-0.00944336
0.00114441
-0.00985909
0.00117115
-0.0103059
0.00119602
-0.0107848
0.00121935
-0.0112965
-0.0118402
0.0012401
9.28174e-05
-0.000771361
0.000314239
-0.00295774
0.00055588
-0.00514364
0.000740838
-0.00671715
0.000859048
-0.0076867
0.000928936
-0.00827914
0.000971922
-0.00870352
0.00100213
-0.00908162
0.00102641
-0.00946764
0.0010474
-0.00988007
0.00106597
-0.0103245
0.0010824
-0.0108012
0.00109691
-0.011311
-0.0118519
0.00110856
9.68159e-05
-0.000868176
0.000315662
-0.00317659
0.000542649
-0.00537063
0.00070879
-0.00688329
0.000809998
-0.00778791
0.000866661
-0.0083358
0.000899519
-0.00873638
0.000921251
-0.00910335
0.000937599
-0.00948399
0.000950653
-0.00989313
0.000961067
-0.0103349
0.000969055
-0.0108092
0.000974753
-0.0113167
-0.0118545
0.000977333
0.000100264
-0.00096844
0.000314877
-0.0033912
0.00052648
-0.00558223
0.000674272
-0.00703109
0.000759447
-0.00787308
0.000803774
-0.00838013
0.000827065
-0.00875967
0.000840582
-0.00911686
0.000849098
-0.00949251
0.000854249
-0.00989828
0.000856517
-0.0103372
0.000856071
-0.0108087
0.000852976
-0.0113136
-0.011848
0.000846508
0.000103096
-0.00107154
0.000311946
-0.00360005
0.000507681
-0.00577796
0.000637677
-0.00716108
0.000707747
-0.00794315
0.000740523
-0.0084129
0.000754713
-0.00877386
0.000760221
-0.00912237
0.000760978
-0.00949326
0.000758248
-0.00989555
0.000752384
-0.0103313
0.000743517
-0.0107999
0.000731653
-0.0113018
-0.0118325
0.000716177
0.000105261
-0.0011768
0.000306962
-0.00380175
0.000486553
-0.00595755
0.000599368
-0.0072739
0.000655208
-0.00799899
0.000677125
-0.00843482
0.000682599
-0.00877934
0.00068026
-0.00912003
0.000673315
-0.00948632
0.000662728
-0.00988496
0.000648748
-0.0103173
0.000631478
-0.0107826
0.000610886
-0.0112812
-0.0118081
0.000586434
0.000106715
-0.00128351
0.000300044
-0.00399508
0.000463385
-0.00612089
0.000559671
-0.00737018
0.000602095
-0.00804142
0.000613755
-0.00844648
0.000610831
-0.00877641
0.000600773
-0.00910997
0.000586172
-0.00947171
0.00056775
-0.00986654
0.000545675
-0.0102953
0.000520019
-0.0107569
0.000490751
-0.0112519
-0.0117747
0.000457346
0.000107432
-0.00139094
0.000291327
-0.00417898
0.000438453
-0.00626802
0.000518877
-0.00745061
0.000548637
-0.00807118
0.000550564
-0.00844841
0.000539502
-0.00876535
0.000521827
-0.0090923
0.000499609
-0.0094495
0.000473378
-0.00984031
0.000443234
-0.0102651
0.000409213
-0.0107229
0.00037131
-0.011214
-0.0117323
0.00032899
0.000107394
-0.00149834
0.000280958
-0.00435254
0.000412015
-0.00639908
0.000477249
-0.00751584
0.000495033
-0.00808896
0.000487679
-0.00844105
0.000468693
-0.00874636
0.000443485
-0.00906709
0.000413687
-0.0094197
0.000379676
-0.0098063
0.000341496
-0.0102269
0.000299154
-0.0106806
0.000252617
-0.0111675
-0.0116811
0.000201386
0.000106599
-0.00160494
0.000269096
-0.00451504
0.000384315
-0.0065143
0.000435019
-0.00756654
0.000441454
-0.0080954
0.000425208
-0.00842481
0.000398474
-0.00871963
0.000365803
-0.00903442
0.000328461
-0.00938236
0.000286701
-0.00976454
0.00024052
-0.0101808
0.000189946
-0.01063
0.000134799
-0.0111123
-0.0116206
7.43086e-05
0.000105059
-0.00171
0.00025591
-0.00466589
0.000355576
-0.00661396
0.000392393
-0.00760336
0.000388047
-0.00809105
0.000363242
-0.0084
0.000328908
-0.0086853
0.000288835
-0.00899435
0.000243988
-0.00933751
0.000194518
-0.00971507
0.000140353
-0.0101266
8.15653e-05
-0.0105712
1.85607e-05
-0.0110493
-0.0115504
-5.16665e-05
0.000102795
-0.00181279
0.000241554
-0.00480465
0.000326005
-0.00669841
0.000349553
-0.00762691
0.000334936
-0.00807643
0.000301862
-0.00836693
0.00026005
-0.00864348
0.000212631
-0.00894693
0.000160321
-0.0092852
0.000103183
-0.00965793
4.10603e-05
-0.0100645
-2.60943e-05
-0.0105041
-9.77982e-05
-0.0109776
-0.0114725
-0.000175655
9.9838e-05
-0.00191263
0.000226181
-0.00493099
0.00029579
-0.00676802
0.000306658
-0.00763778
0.000282231
-0.00805201
0.000241133
-0.00832583
0.00019195
-0.0085943
0.000137235
-0.00889221
7.7505e-05
-0.00922547
1.26274e-05
-0.00959305
-5.71917e-05
-0.00999465
-0.000132097
-0.0104291
-0.000212695
-0.010897
-0.0113864
-0.000298808
9.62294e-05
-0.00200886
0.000209932
-0.00504469
0.000265101
-0.00682319
0.000263848
-0.00763653
0.000230022
-0.00801818
0.000181114
-0.00827692
0.000124656
-0.00853784
6.26768e-05
-0.00883023
-4.64647e-06
-0.00915815
-7.67188e-05
-0.00952098
-0.000154373
-0.00991699
-0.00023734
-0.0103462
-0.000326263
-0.0108081
-0.0112918
-0.00042083
9.20158e-05
-0.00210087
0.000192947
-0.00514563
0.000234092
-0.00686434
0.000221245
-0.00762368
0.000178387
-0.00797532
0.000121856
-0.00822039
5.81918e-05
-0.00847418
-1.10842e-05
-0.00876096
-8.53006e-05
-0.00908393
-0.000165115
-0.00944116
-0.000250488
-0.00983162
-0.000341469
-0.0102552
-0.000438565
-0.010711
-0.0111889
-0.000541551
8.72487e-05
-0.00218812
0.000175355
-0.00523373
0.000202902
-0.00689188
0.000178956
-0.00759973
0.000127391
-0.00792376
6.33997e-05
-0.0081564
-7.58089e-06
-0.0084032
-8.35842e-05
-0.00868495
-0.000165191
-0.00900232
-0.000252446
-0.00935391
-0.000345468
-0.0097386
-0.000444374
-0.0101563
-0.000549569
-0.0106058
-0.0110775
-0.00066089
8.19829e-05
-0.00227011
0.000157278
-0.00530903
0.000171656
-0.00690626
0.000137073
-0.00756515
7.70847e-05
-0.00786377
5.57546e-06
-0.00808489
-7.1939e-05
-0.00832568
-0.000155217
-0.00860168
-0.000244036
-0.00891351
-0.000338651
-0.00925929
-0.000439244
-0.00963801
-0.000545983
-0.0100496
-0.000659212
-0.0104926
-0.010958
-0.000778763
7.62748e-05
-0.00234638
0.000138831
-0.00537158
0.000140467
-0.0069079
9.56709e-05
-0.00752035
2.74766e-05
-0.00779558
-5.08606e-05
-0.00800655
-0.000135542
-0.008241
-0.000225829
-0.00851139
-0.000321779
-0.00881756
-0.000423675
-0.0091574
-0.000531756
-0.00952992
-0.000646234
-0.00993508
-0.000767426
-0.0103714
-0.0108303
-0.0008951
7.01816e-05
-0.00241656
0.00012012
-0.00542152
0.000109433
-0.00689721
5.48315e-05
-0.00746575
-2.12721e-05
-0.00771947
-0.000106593
-0.00792123
-0.000198156
-0.00814944
-0.000295371
-0.00841417
-0.00039837
-0.00871456
-0.000507468
-0.0090483
-0.000622945
-0.00941445
-0.000745065
-0.00981296
-0.00087414
-0.0102423
-0.0106946
-0.00100983
6.37591e-05
-0.00248032
0.000101248
-0.00545901
7.86412e-05
-0.00687461
1.4621e-05
-0.00740173
-6.89853e-05
-0.00763587
-0.000161379
-0.00782884
-0.000259737
-0.00805108
-0.0003638
-0.00831011
-0.000473766
-0.00860459
-0.000589977
-0.00893209
-0.000712755
-0.00929167
-0.000842417
-0.0096833
-0.000979288
-0.0101055
-0.010551
-0.00112288
5.70616e-05
-0.00253738
8.23115e-05
-0.00548426
4.81682e-05
-0.00684046
-2.49092e-05
-0.00732865
-0.00011594
-0.00754483
-0.000215177
-0.0077296
-0.000320249
-0.00794601
-0.000431079
-0.00819928
-0.000547924
-0.00848774
-0.000671156
-0.00880886
-0.00080113
-0.0091617
-0.000938228
-0.0095462
-0.0010828
-0.00996088
-0.0103996
-0.0012342
5.01425e-05
-0.00258753
6.34084e-05
-0.00549753
1.80868e-05
-0.00679514
-6.37209e-05
-0.00724685
-0.000162008
-0.00744655
-0.000267959
-0.00762365
-0.000379659
-0.00783431
-0.00049717
-0.00808177
-0.000620803
-0.00836411
-0.000750956
-0.00867871
-0.000888019
-0.00902463
-0.00103244
-0.00940178
-0.00118462
-0.0098087
-0.0102405
-0.0013437
4.30592e-05
-0.00263058
4.46413e-05
-0.00549911
-1.15438e-05
-0.00673896
-0.000101782
-0.00715661
-0.000207144
-0.00734119
-0.000319699
-0.0075111
-0.000437936
-0.00771607
-0.000562038
-0.00795767
-0.000692362
-0.00823379
-0.000829334
-0.00854173
-0.000973372
-0.00888059
-0.001125
-0.00925015
-0.00128467
-0.00964902
-0.0100739
-0.00145133
3.58726e-05
-0.00266646
2.61714e-05
-0.00548941
-4.06151e-05
-0.00667217
-0.000139065
-0.00705816
-0.000251324
-0.00722893
-0.00037037
-0.00739205
-0.000495051
-0.00759139
-0.000625647
-0.00782707
-0.000762563
-0.00809687
-0.000906245
-0.00839805
-0.00105714
-0.0087297
-0.00121584
-0.00909145
-0.0013829
-0.00948196
-0.00989976
-0.00155703
2.86187e-05
-0.00269508
8.46437e-06
-0.00546925
-6.90984e-05
-0.00659461
-0.000175553
-0.0069517
-0.00029453
-0.00710995
-0.000419951
-0.00726663
-0.000550974
-0.00746037
-0.000687965
-0.00769008
-0.000831367
-0.00795347
-0.000981649
-0.00824777
-0.00113927
-0.00857208
-0.00130491
-0.00892582
-0.00147925
-0.00930763
-0.00971828
-0.00166073
2.12659e-05
-0.00271634
-1.01336e-05
-0.00543785
-9.70669e-05
-0.00650767
-0.000211212
-0.00683756
-0.000336739
-0.00698442
-0.000468417
-0.00713495
-0.000605678
-0.00732311
-0.000748958
-0.0075468
-0.000898736
-0.00780369
-0.0010555
-0.008091
-0.00121974
-0.00840784
-0.00139218
-0.00875337
-0.00157366
-0.00912615
-0.00952958
-0.00176235
1.38473e-05
-0.00273019
-2.9268e-05
-0.00539474
-0.000124516
-0.00641242
-0.000246002
-0.00671607
-0.00037793
-0.0068525
-0.000515746
-0.00699713
-0.000659135
-0.00717972
-0.000808593
-0.00739734
-0.000964636
-0.00764765
-0.00112777
-0.00792787
-0.00129848
-0.00823713
-0.00147761
-0.00857425
-0.0016661
-0.00893767
-0.00933393
-0.00186175
6.49019e-06
-0.00273668
-4.74834e-05
-0.00534077
-0.000151347
-0.00630856
-0.000279904
-0.00658752
-0.00041808
-0.00671432
-0.000561917
-0.0068533
-0.00071132
-0.00703032
-0.000866841
-0.00724182
-0.00102903
-0.00748546
-0.00119841
-0.00775849
-0.00137548
-0.00806006
-0.00156115
-0.00838857
-0.00175648
-0.00874234
-0.0091316
-0.00195881
-4.77296e-07
-0.0027362
-6.51427e-05
-0.0052761
-0.000177515
-0.00619619
-0.000312902
-0.00645213
-0.000457172
-0.00657005
-0.000606908
-0.00670356
-0.000762205
-0.00687502
-0.00092367
-0.00708036
-0.00109188
-0.00731725
-0.00126738
-0.007583
-0.00145068
-0.00787675
-0.00164277
-0.00819648
-0.00184475
-0.00854036
-0.00892255
-0.0020538
-8.35795e-06
-0.00272784
-8.2366e-05
-0.00520209
-0.000202976
-0.00607558
-0.000344979
-0.00631012
-0.000495189
-0.00641984
-0.000650698
-0.00654805
-0.000811767
-0.00671395
-0.00097905
-0.00691307
-0.00115316
-0.00714314
-0.00133464
-0.00740152
-0.00152408
-0.00768732
-0.00172252
-0.00799804
-0.00193089
-0.00833198
-0.00870693
-0.00214651
-1.5707e-05
-0.00271214
-9.91471e-05
-0.00511865
-0.000227709
-0.00594702
-0.000376118
-0.00616172
-0.000532117
-0.00626384
-0.000693268
-0.0063869
-0.00085998
-0.00654724
-0.00103295
-0.0067401
-0.00121282
-0.00696327
-0.00140017
-0.00721417
-0.00159568
-0.00749181
-0.00180045
-0.00779327
-0.00201462
-0.00811781
-0.00848656
-0.00223499
-2.28755e-05
-0.00268926
-0.000115475
-0.00502605
-0.000251697
-0.0058108
-0.000406305
-0.00600711
-0.000567939
-0.00610221
-0.000734599
-0.00622024
-0.000906819
-0.00637502
-0.00108534
-0.00656158
-0.00127083
-0.00677778
-0.00146391
-0.00702109
-0.00166541
-0.00729031
-0.0018764
-0.00758228
-0.00209702
-0.00789719
-0.00826532
-0.00231826
-2.9883e-05
-0.00265938
-0.000131338
-0.0049246
-0.000274926
-0.00566721
-0.000435529
-0.0058465
-0.000602645
-0.00593509
-0.000774673
-0.00604821
-0.000952263
-0.00619743
-0.00113619
-0.00637765
-0.00132716
-0.00658681
-0.00152585
-0.0068224
-0.00173316
-0.00708299
-0.00194957
-0.00736588
-0.00217206
-0.0076747
-0.0080212
-0.00241618
-3.67254e-05
-0.00262265
-0.000146722
-0.0048146
-0.000297385
-0.00551655
-0.000463779
-0.00568011
-0.000636219
-0.00576265
-0.000813472
-0.00587096
-0.000996287
-0.00601461
-0.00118548
-0.00618846
-0.00138178
-0.00639051
-0.00158593
-0.00661826
-0.00179875
-0.00687017
-0.00202026
-0.00714437
-0.00224997
-0.00744499
-0.00777233
-0.00249884
-4.33928e-05
-0.00257926
-0.000161614
-0.00469638
-0.000319064
-0.00535909
-0.000491044
-0.00550813
-0.000668649
-0.00558505
-0.000850978
-0.00568863
-0.00103887
-0.00582672
-0.00123317
-0.00599416
-0.00143466
-0.00618902
-0.00164411
-0.00640881
-0.00186229
-0.00665198
-0.00208931
-0.00691734
-0.00232618
-0.00720812
-0.00751958
-0.00257892
-4.98737e-05
-0.00252939
-0.000175999
-0.00457025
-0.000339954
-0.00519514
-0.000517318
-0.00533077
-0.000699925
-0.00540244
-0.000887177
-0.00550138
-0.00107999
-0.00563391
-0.00127925
-0.0057949
-0.00148576
-0.00598251
-0.00170033
-0.00619424
-0.00192369
-0.00642863
-0.00215614
-0.0066849
-0.00239915
-0.00696511
-0.00726252
-0.0026562
-5.61565e-05
-0.00247323
-0.000189868
-0.00443654
-0.000360048
-0.00502496
-0.000542593
-0.00514822
-0.000730035
-0.005215
-0.000922051
-0.00530936
-0.00111963
-0.00543633
-0.00132368
-0.00559085
-0.00153506
-0.00577113
-0.00175458
-0.00597471
-0.00198297
-0.00620024
-0.00222072
-0.00644714
-0.00246936
-0.00671647
-0.00700103
-0.00273086
-6.22303e-05
-0.002411
-0.00020321
-0.00429556
-0.000379339
-0.00484883
-0.000566861
-0.0049607
-0.000758969
-0.00502289
-0.000955586
-0.00511275
-0.00115776
-0.00523415
-0.00136645
-0.00538216
-0.00158252
-0.00555506
-0.00180682
-0.00575041
-0.00204008
-0.00596698
-0.00228294
-0.00620428
-0.00253681
-0.0064626
-0.00673496
-0.00280289
-6.80856e-05
-0.00234291
-0.000216014
-0.00414763
-0.000397821
-0.00466702
-0.000590117
-0.0047684
-0.000786717
-0.00482629
-0.000987767
-0.0049117
-0.00119437
-0.00502755
-0.00140752
-0.00516902
-0.00162812
-0.00533446
-0.00185701
-0.00552151
-0.00209497
-0.00572902
-0.00234274
-0.00595652
-0.00260157
-0.00620377
-0.00646427
-0.00287226
-7.37206e-05
-0.00226919
-0.000228275
-0.00399308
-0.00041549
-0.00447981
-0.000612355
-0.00457154
-0.00081327
-0.00462537
-0.00101858
-0.00470639
-0.00122945
-0.00481668
-0.00144688
-0.00495158
-0.00167182
-0.00510952
-0.00190514
-0.00528819
-0.00214762
-0.00548654
-0.00240007
-0.00570407
-0.00266363
-0.00594021
-0.00618899
-0.0029389
-7.91285e-05
-0.00219006
-0.000239984
-0.00383222
-0.000432341
-0.00428745
-0.000633568
-0.00437031
-0.000838618
-0.00442033
-0.00104801
-0.00449699
-0.00126296
-0.00460173
-0.00148451
-0.00473004
-0.00171361
-0.00488042
-0.00195117
-0.00505064
-0.00219799
-0.00523972
-0.00245491
-0.00544716
-0.00272298
-0.00567213
-0.00590923
-0.00300275
-8.4301e-05
-0.00210576
-0.000251136
-0.00366539
-0.00044837
-0.00409022
-0.000653753
-0.00416493
-0.000862753
-0.00421133
-0.00107605
-0.00428369
-0.00129491
-0.00438287
-0.00152038
-0.00450457
-0.00175346
-0.00464734
-0.00199507
-0.00480903
-0.00224604
-0.00498875
-0.00250722
-0.00518597
-0.00277962
-0.00539973
-0.0056251
-0.00306375
-8.92312e-05
-0.00201653
-0.000261726
-0.00349289
-0.000463573
-0.00388837
-0.000672904
-0.0039556
-0.000885666
-0.00399856
-0.00110269
-0.00406667
-0.00132526
-0.0041603
-0.00155447
-0.00427535
-0.00179135
-0.00441046
-0.00203682
-0.00456356
-0.00229174
-0.00473383
-0.00255698
-0.00492073
-0.00283351
-0.0051232
-0.00533676
-0.00312184
-9.3913e-05
-0.00192262
-0.000271748
-0.00331506
-0.000477948
-0.00368217
-0.000691017
-0.00374253
-0.000907351
-0.00378223
-0.0011279
-0.00384612
-0.001354
-0.0039342
-0.00158677
-0.00404258
-0.00182725
-0.00416998
-0.00207639
-0.00431443
-0.00233506
-0.00447516
-0.00260415
-0.00465164
-0.00288462
-0.00484274
-0.0050444
-0.00317698
-9.83414e-05
-0.00182428
-0.000281199
-0.0031322
-0.000491491
-0.00347188
-0.000708088
-0.00352593
-0.0009278
-0.00356252
-0.00115169
-0.00362222
-0.00138113
-0.00370476
-0.00161726
-0.00380645
-0.00186115
-0.00392609
-0.00211375
-0.00406183
-0.00237598
-0.00421294
-0.00264872
-0.00437889
-0.00293291
-0.00455855
-0.00474821
-0.0032291
-0.000102512
-0.00172177
-0.000290074
-0.00294464
-0.000504201
-0.00325775
-0.000724114
-0.00330602
-0.000947006
-0.00333963
-0.00117405
-0.00339518
-0.00140663
-0.00347218
-0.00164593
-0.00356716
-0.00189302
-0.003679
-0.00214889
-0.00380595
-0.00241446
-0.00394737
-0.00269064
-0.00410271
-0.00297836
-0.00427084
-0.00444839
-0.00327818
-0.00010642
-0.00161535
-0.000298372
-0.00275269
-0.000516075
-0.00304005
-0.00073909
-0.003083
-0.000964964
-0.00311375
-0.00119495
-0.00316519
-0.00143048
-0.00323665
-0.00167274
-0.0033249
-0.00192284
-0.0034289
-0.00218178
-0.00354702
-0.00245049
-0.00367865
-0.0027299
-0.0038233
-0.00302092
-0.00397981
-0.00414516
-0.00332416
-0.000110062
-0.00150528
-0.000306088
-0.00255666
-0.00052711
-0.00281903
-0.000753014
-0.0028571
-0.000981667
-0.0028851
-0.00121441
-0.00293245
-0.00145268
-0.00299838
-0.0016977
-0.00307988
-0.0019506
-0.003176
-0.0022124
-0.00328523
-0.00248404
-0.00340701
-0.00276646
-0.00354088
-0.00306058
-0.00368569
-0.00383873
-0.003367
-0.000113436
-0.00139185
-0.00031322
-0.00235688
-0.000537306
-0.00259494
-0.000765882
-0.00262852
-0.000997111
-0.00265387
-0.0012324
-0.00269717
-0.00147321
-0.00275756
-0.00172079
-0.0028323
-0.00197629
-0.00292051
-0.00224073
-0.00302079
-0.00251508
-0.00313266
-0.0028003
-0.00325567
-0.00309729
-0.0033887
-0.00352934
-0.00340668
-0.000116538
-0.00127531
-0.000319767
-0.00215365
-0.00054666
-0.00236805
-0.000777692
-0.00239749
-0.00101129
-0.00242027
-0.00124892
-0.00245954
-0.00149207
-0.0025144
-0.001742
-0.00258237
-0.00199988
-0.00266263
-0.00226675
-0.00275392
-0.0025436
-0.00285581
-0.00283139
-0.00296787
-0.00313103
-0.00308906
-0.00321721
-0.00344315
-0.000119365
-0.00115595
-0.000325726
-0.00194729
-0.000555172
-0.0021386
-0.000788442
-0.00216422
-0.0010242
-0.00218451
-0.00126397
-0.00221977
-0.00150925
-0.00226912
-0.00176132
-0.0023303
-0.00202137
-0.00240259
-0.00229044
-0.00248484
-0.00256957
-0.00257669
-0.0028597
-0.00267774
-0.00316176
-0.002787
-0.00290259
-0.00347639
-0.000121917
-0.00103403
-0.000331095
-0.00173811
-0.00056284
-0.00190686
-0.000798128
-0.00192893
-0.00103584
-0.0019468
-0.00127754
-0.00197807
-0.00152474
-0.00202191
-0.00177874
-0.0020763
-0.00204074
-0.00214059
-0.00231181
-0.00221378
-0.00259298
-0.00229552
-0.00288523
-0.00238549
-0.00318947
-0.00248276
-0.0025857
-0.00350636
-0.000124191
-0.000909838
-0.000335874
-0.00152643
-0.000569662
-0.00167307
-0.00080675
-0.00169185
-0.0010462
-0.00170734
-0.00128962
-0.00173466
-0.00153854
-0.00177299
-0.00179426
-0.00182058
-0.00205799
-0.00187686
-0.00233083
-0.00194094
-0.00261381
-0.00201254
-0.00290794
-0.00209136
-0.00321412
-0.00217657
-0.00226679
-0.00353303
-0.000126185
-0.000783654
-0.00034006
-0.00131255
-0.000575638
-0.00143749
-0.000814304
-0.00145318
-0.00105529
-0.00146636
-0.00130022
-0.00148973
-0.00155064
-0.00152257
-0.00180787
-0.00156335
-0.00207312
-0.00161161
-0.0023475
-0.00166656
-0.00263206
-0.00172797
-0.00292782
-0.00179559
-0.0032357
-0.00186869
-0.00194611
-0.00355637
-0.000127897
-0.000655756
-0.000343653
-0.00109679
-0.000580767
-0.00120037
-0.000820789
-0.00121316
-0.00106309
-0.00122406
-0.00130932
-0.0012435
-0.00156104
-0.00127084
-0.00181956
-0.00130483
-0.00208612
-0.00134506
-0.00236181
-0.00139087
-0.00264772
-0.00144207
-0.00294487
-0.00149844
-0.00325418
-0.00155938
-0.00162394
-0.00357636
-0.000129328
-0.000526429
-0.000346651
-0.000879471
-0.000585046
-0.000961979
-0.000826203
-0.000972002
-0.0010696
-0.00098066
-0.00131693
-0.000996176
-0.00156973
-0.00101804
-0.00182934
-0.00104522
-0.00209699
-0.00107741
-0.00237379
-0.00111407
-0.00266081
-0.00115504
-0.0029591
-0.00120016
-0.00326958
-0.0012489
-0.00130054
-0.00359298
-0.000130474
-0.000395954
-0.000349054
-0.000660891
-0.000588476
-0.000722557
-0.000830544
-0.000729935
-0.00107483
-0.000736372
-0.00132303
-0.000747975
-0.00157672
-0.000764351
-0.00183721
-0.000784731
-0.00210574
-0.000808875
-0.00238343
-0.000836382
-0.00267134
-0.00086713
-0.00297052
-0.000900977
-0.0032819
-0.000937527
-0.000976211
-0.00360622
-0.000131336
-0.000264618
-0.00035086
-0.000441368
-0.000591056
-0.000482361
-0.000833811
-0.00048718
-0.00107877
-0.000491414
-0.00132764
-0.000499109
-0.00158199
-0.000509999
-0.00184315
-0.000523571
-0.00211236
-0.000539663
-0.00239073
-0.00055801
-0.00267933
-0.000578529
-0.00297919
-0.000601119
-0.00329121
-0.000625506
-0.000651275
-0.00361615
-0.000131914
-0.000132704
-0.000352069
-0.000221212
-0.000592783
-0.000241647
-0.000836
-0.000243962
-0.00108141
-0.000246003
-0.00133073
-0.000249791
-0.00158554
-0.000255192
-0.00184716
-0.000261948
-0.00211684
-0.000269979
-0.0023957
-0.000279152
-0.0026848
-0.000289428
-0.00298516
-0.000300759
-0.00329765
-0.000313018
-0.00032599
-0.00362294
-0.000132205
-4.99086e-07
-0.00035268
-7.36931e-07
-0.000593658
-6.69628e-07
-0.000837111
-5.08769e-07
-0.00108276
-3.59293e-07
-0.00133231
-2.38181e-07
-0.00158735
-1.4515e-07
-0.00184922
-7.77122e-08
-0.00211917
-3.43574e-08
-0.00239831
-1.35376e-08
-0.00268772
-1.63183e-08
-0.00298843
-4.50556e-08
-0.00330135
-1.02613e-07
-2.27e-07
-0.00362711
-0.000132211
0.000131712
-0.000352693
0.000219746
-0.000593679
0.000240316
-0.000837143
0.000242955
-0.0010828
0.000245297
-0.00133237
0.000249331
-0.00158744
0.000254922
-0.00184933
0.00026182
-0.00211932
0.000269947
-0.00239851
0.000279177
-0.002688
0.000289476
-0.00298885
0.000300805
-0.003302
0.000313044
0.000326038
-0.00362826
-0.00013193
0.000263642
-0.000352108
0.000439923
-0.000592846
0.000481055
-0.000836094
0.000486202
-0.00108154
0.000490746
-0.00133091
0.000498697
-0.00158577
0.00050979
-0.00184747
0.00052352
-0.00211726
0.000539733
-0.00239625
0.000558172
-0.00268554
0.000578767
-0.00298618
0.000601437
-0.00329907
0.000625934
0.000651865
-0.00362489
-0.000131364
0.000395006
-0.000350924
0.000659483
-0.000591159
0.00072129
-0.000833963
0.000729005
-0.00107898
0.000735764
-0.00132792
0.000747638
-0.00158237
0.000764234
-0.00184364
0.000784794
-0.00211299
0.000809084
-0.00239154
0.000836718
-0.00268035
0.000867584
-0.00298047
0.000901553
-0.00329278
0.000938242
0.000977061
-0.00361797
-0.000130512
0.000525518
-0.000349141
0.000878112
-0.000588618
0.000960767
-0.00083075
0.000971138
-0.00107512
0.000980131
-0.00132341
0.000995933
-0.00157721
0.00101803
-0.00183783
0.00104541
-0.00210651
0.00107777
-0.00238437
0.00111457
-0.00267246
0.00115568
-0.00297181
0.0012009
-0.00328332
0.00124975
0.00130143
-0.00360768
-0.000129374
0.000654892
-0.000346759
0.0010955
-0.000585221
0.00119923
-0.000826456
0.00121237
-0.00106995
0.00122363
-0.00131738
0.00124336
-0.00157031
0.00127096
-0.00183005
0.00130516
-0.00209784
0.00134555
-0.00237477
0.0013915
-0.0026619
0.00144281
-0.00296026
0.00149926
-0.00327074
0.00156023
0.00162474
-0.00359406
-0.000127952
0.000782844
-0.00034378
0.00131132
-0.000580971
0.00143642
-0.000821081
0.00145248
-0.00106348
0.00146603
-0.00130983
0.00148971
-0.00156167
0.0015228
-0.00182031
0.0015638
-0.00208697
0.00161222
-0.00236275
0.00166728
-0.00264871
0.00172876
-0.00294584
0.00179639
-0.00325508
0.00186947
0.00194679
-0.00357713
-0.000126247
0.000909091
-0.000340203
0.00152528
-0.000575867
0.00167208
-0.000814628
0.00169124
-0.00105572
0.00170712
-0.00130076
0.00173475
-0.00155129
0.00177334
-0.00180862
0.00182112
-0.00207394
0.00187754
-0.00234835
0.0019417
-0.0026329
0.00201331
-0.0029286
0.00209209
-0.00323637
0.00217724
0.00226734
-0.00355691
-0.000124259
0.00103335
-0.00033603
0.00173705
-0.000569911
0.00190597
-0.000807097
0.00192843
-0.00104666
0.00194668
-0.00129018
0.00197827
-0.0015392
0.00202235
-0.00179498
0.00207691
-0.00205875
0.00214131
-0.00233158
0.00221452
-0.00261451
0.00229624
-0.00290854
0.00238613
-0.00321461
0.00248331
0.00258613
-0.00353341
-0.000121989
0.00115534
-0.000331262
0.00194632
-0.000563103
0.00213781
-0.000798491
0.00216382
-0.00103631
0.00218449
-0.0012781
0.00222006
-0.00152538
0.00226964
-0.00177942
0.00233095
-0.00204142
0.00240331
-0.00231245
0.00248555
-0.00259354
0.00257733
-0.00288569
0.00267828
-0.00318983
0.00278744
0.00290294
-0.00350663
-0.000119441
0.00127478
-0.0003259
0.00215278
-0.000555445
0.00236735
-0.000788813
0.00239719
-0.00102467
0.00242035
-0.00126452
0.00245991
-0.00150986
0.00251498
-0.00176195
0.00258304
-0.00202197
0.00266333
-0.00229098
0.00275457
-0.00257002
0.00285636
-0.00286006
0.00296832
-0.00316203
0.00308942
0.0032175
-0.00347659
-0.000116615
0.00139139
-0.000319945
0.00235611
-0.000546938
0.00259434
-0.000778065
0.00262831
-0.00101175
0.00265403
-0.00124945
0.00269761
-0.00149264
0.00275817
-0.00174257
0.00283297
-0.0020004
0.00292116
-0.00226719
0.00302136
-0.00254395
0.00313312
-0.00283166
0.00325602
-0.00313123
0.00338899
0.00352958
-0.00344331
-0.000113513
0.00150491
-0.0003134
0.002556
-0.000537584
0.00281853
-0.000766251
0.00285698
-0.000997559
0.00288534
-0.0012329
0.00293295
-0.00147373
0.002999
-0.00172129
0.00308053
-0.00197673
0.0031766
-0.00224109
0.00328572
-0.00251536
0.00340739
-0.0028005
0.00354117
-0.00309744
0.00368592
0.00383894
-0.0034068
-0.00011014
0.00161505
-0.000306267
0.00275213
-0.000527386
0.00303965
-0.000753375
0.00308297
-0.000982096
0.00311406
-0.00121487
0.00316573
-0.00145315
0.00323728
-0.00169814
0.00332551
-0.00195098
0.00342943
-0.00221269
0.00354744
-0.00248426
0.00367896
-0.00276662
0.00382353
-0.0030607
0.00398