/*--------------------------------*- C++ -*----------------------------------*\
  =========                 |
  \\      /  F ield         | OpenFOAM: The Open Source CFD Toolbox
   \\    /   O peration     | Website:  https://openfoam.org
    \\  /    A nd           | Version:  7
     \\/     M anipulation  |
\*---------------------------------------------------------------------------*/
FoamFile
{
    version     2.0;
    format      ascii;
    class       volVectorField;
    location    "15";
    object      U;
}
// * * * * * * * * * * * * * * * * * * * * * * * * * * * * * * * * * * * * * //

dimensions      [0 1 -1 0 0 0 0];

internalField   nonuniform List<vector> 
8330
(
(-0.0202443 0.0279512 -2.073e-19)
(-0.0212678 0.0275166 2.92631e-19)
(-0.0222839 0.0270202 2.06279e-19)
(-0.0232835 0.0264664 -2.81295e-19)
(-0.0242526 0.0258554 -2.44648e-19)
(-0.0423947 0.0494191 -2.70251e-19)
(-0.0251708 0.0251827 2.45761e-19)
(-0.0418608 0.0469369 1.64293e-19)
(-0.0260094 0.0244395 -3.27181e-19)
(-0.0407373 0.0442545 2.48282e-19)
(-0.0267371 0.0236201 -2.80204e-20)
(-0.0389079 0.0413816 -2.27256e-19)
(-0.027322 0.0227183 1.17512e-19)
(-0.0362441 0.0383232 -1.49204e-19)
(-0.00537159 0.0412273 4.49026e-20)
(-0.0277232 0.0217218 -1.11787e-19)
(-0.0326115 0.0350885 2.27326e-19)
(0.00670902 0.0369666 2.23697e-19)
(-0.0278917 0.0206171 3.22284e-19)
(-0.0278692 0.0316914 -1.75072e-19)
(0.0211764 0.0327589 2.26162e-19)
(0.1196 0.0306586 -3.79583e-20)
(-0.0277738 0.0193931 1.86564e-19)
(-0.0218686 0.0281505 6.44152e-20)
(0.0382754 0.0286883 -5.29253e-19)
(0.152963 0.0278293 -2.27013e-20)
(-0.0273112 0.0180416 7.80755e-20)
(-0.014456 0.0244909 1.1406e-19)
(0.0582421 0.0248525 3.63565e-19)
(0.190747 0.0259035 3.41206e-19)
(-0.026442 0.0165585 -2.90202e-19)
(-0.00547431 0.0207474 3.8086e-19)
(0.0812969 0.0213661 -2.70845e-19)
(0.233021 0.0251093 -2.46802e-19)
(0.441361 0.0419487 -6.30256e-20)
(-0.0251008 0.0149444 4.68221e-19)
(0.00523375 0.0169656 -3.70674e-19)
(0.107635 0.0183646 2.6338e-19)
(0.279707 0.0256816 -6.51961e-20)
(0.506494 0.0484158 1.28347e-19)
(-0.0232201 0.0132056 -4.04321e-19)
(0.0178236 0.013205 3.01539e-19)
(0.137415 0.0160082 4.21224e-20)
(0.330552 0.02784 1.68469e-19)
(0.573596 0.056756 -1.16371e-20)
(0.817686 0.093578 5.47238e-20)
(-0.0207308 0.0113546 1.02269e-19)
(0.0324454 0.00953989 -5.01973e-19)
(0.17074 0.0144824 -1.478e-19)
(0.385106 0.0317591 1.16174e-19)
(0.641389 0.0667999 -1.1509e-19)
(0.883473 0.106593 -6.75795e-21)
(1.07168 0.139674 1.24559e-19)
(-0.0175634 0.00941024 -1.91415e-19)
(0.0492408 0.00606171 4.46785e-19)
(0.207638 0.0139955 -1.70651e-19)
(0.442724 0.0375406 -2.39055e-19)
(0.708595 0.078312 2.45669e-20)
(0.944663 0.120094 -1.64603e-21)
(1.1176 0.152147 1.2793e-19)
(-0.0136491 0.00739796 1.40116e-19)
(0.0683379 0.00288081 9.68542e-20)
(0.24804 0.0147673 2.3123e-19)
(0.502595 0.0451973 2.62407e-19)
(0.774048 0.0910298 -3.22954e-20)
(1.00068 0.133849 5.22917e-20)
(1.15723 0.164266 -1.54915e-19)
(1.24902 0.180508 1.67454e-19)
(-0.00892035 0.00534966 -1.23332e-20)
(0.0898447 0.000128093 -1.81957e-19)
(0.291763 0.0170116 -2.21622e-19)
(0.563803 0.054656 -7.26251e-20)
(0.836759 0.104696 1.15072e-19)
(1.05124 0.147675 -2.50096e-20)
(1.19096 0.175972 -7.39324e-20)
(1.26767 0.18951 7.04637e-20)
(1.30188 0.191861 2.48041e-19)
(-0.00331219 0.0033037 -8.50517e-20)
(0.113841 -0.00204411 -2.40277e-19)
(0.338497 0.0209134 2.68181e-19)
(0.625389 0.0657767 -6.93969e-20)
(0.895957 0.11908 7.786e-21)
(1.09626 0.161437 5.47994e-21)
(1.21922 0.187243 1.92503e-20)
(1.28209 0.198041 -2.07411e-19)
(1.307 0.198212 6.46092e-20)
(1.31169 0.192094 1.32024e-19)
(0.00323728 0.00130508 1.85942e-20)
(0.14037 -0.00346293 1.08318e-19)
(0.38781 0.0266072 1.83667e-19)
(0.68642 0.0783799 -3.54639e-20)
(0.95109 0.133983 1.52902e-19)
(1.13586 0.17504 6.74653e-20)
(1.24255 0.198082 1.68304e-19)
(1.2929 0.206162 1.59646e-19)
(1.30988 0.204306 -1.87753e-19)
(1.31025 0.196926 -1.36503e-19)
(1.30365 0.1869 -1.52742e-19)
(0.0107859 -0.00059405 2.85479e-20)
(0.169423 -0.00393878 4.65386e-20)
(0.439167 0.0341633 -4.65743e-19)
(0.746044 0.0922723 1.62434e-19)
(1.00181 0.149243 -1.36184e-19)
(1.17025 0.188421 -6.92299e-20)
(1.26147 0.208511 -9.39182e-20)
(1.30066 0.213938 -5.42039e-20)
(1.31096 0.210209 -1.26834e-19)
(1.30787 0.20169 2.25661e-19)
(1.29969 0.190949 3.45833e-20)
(1.29036 0.179118 6.33447e-20)
(0.0193866 -0.00233378 3.80256e-20)
(0.200934 -0.0032729 -8.09266e-20)
(0.491951 0.0435855 1.59399e-19)
(0.803529 0.107266 -1.46434e-19)
(1.04793 0.164731 -2.04925e-19)
(1.19975 0.201542 -1.12992e-19)
(1.27649 0.218563 -1.57849e-19)
(1.30586 0.221432 7.47897e-20)
(1.31058 0.215978 4.75972e-20)
(1.30474 0.206423 -1.12569e-19)
(1.29536 0.195024 9.7366e-21)
(1.28553 0.182856 -5.035e-20)
(1.2758 0.171105 3.09489e-20)
(0.0290853 -0.00384567 -1.74292e-19)
(0.234771 -0.00126852 1.27063e-19)
(0.545507 0.0548196 -1.00518e-19)
(0.85828 0.123187 1.75526e-20)
(1.08942 0.180344 2.79836e-19)
(1.22472 0.214387 7.9997e-20)
(1.2881 0.228279 2.64954e-19)
(1.30892 0.228704 -1.07484e-19)
(1.30904 0.221659 1.64056e-20)
(1.30103 0.211151 1.20852e-19)
(1.29074 0.199133 -5.4047e-20)
(1.28052 0.18662 -7.60621e-21)
(1.27065 0.174395 -3.11171e-20)
(1.26215 0.160382 5.67889e-21)
(0.0399194 -0.00505238 1.59263e-19)
(0.270731 0.00225565 2.13984e-20)
(0.599168 0.0677686 6.86165e-20)
(0.909841 0.139884 -6.7554e-20)
(1.12635 0.196002 -5.81562e-20)
(1.24554 0.226952 -9.84912e-20)
(1.29675 0.237705 6.90607e-20)
(1.31019 0.235807 9.76809e-20)
(1.30653 0.227292 -4.77125e-20)
(1.29683 0.215893 -5.51724e-20)
(1.28586 0.203282 5.30764e-20)
(1.27535 0.190408 2.33251e-20)
(1.26539 0.177706 -7.51411e-20)
(1.25677 0.163688 -3.93503e-20)
(0.0519139 -0.00586779 7.87514e-20)
(0.308548 0.00745219 -1.47223e-19)
(0.652292 0.0823083 1.85558e-19)
(0.957888 0.157222 5.3896e-20)
(1.15885 0.211643 -1.33566e-20)
(1.26259 0.239246 -8.49155e-20)
(1.30282 0.246884 -1.75044e-19)
(1.30997 0.242787 -1.20178e-19)
(1.30325 0.232904 1.13737e-19)
(1.29224 0.220661 -5.64052e-20)
(1.28075 0.20747 3.73866e-20)
(1.27003 0.194215 -4.76553e-20)
(1.26001 0.181031 4.97694e-20)
(1.25129 0.166989 -1.21174e-20)
(0.0650782 -0.00619811 -1.46644e-19)
(0.347896 0.0144346 -2.00185e-19)
(0.704285 0.0983009 2.13764e-20)
(1.00221 0.175085 3.38307e-20)
(1.18713 0.22722 7.23643e-20)
(1.27624 0.251283 -3.00946e-20)
(1.30668 0.255859 -2.67887e-20)
(1.3085 0.249682 1.18888e-19)
(1.29932 0.238516 5.569e-21)
(1.28729 0.225459 -3.21924e-20)
(1.27543 0.211693 -3.48511e-20)
(1.26456 0.198034 1.70075e-20)
(1.25451 0.184365 5.21746e-20)
(1.24572 0.170278 2.94786e-20)
(0.079402 -0.00594397 -1.08004e-21)
(0.388404 0.0232714 2.24474e-19)
(0.754617 0.115603 9.45354e-20)
(1.04269 0.193374 -1.06709e-19)
(1.21141 0.242698 6.89289e-20)
(1.28683 0.263082 5.65952e-20)
(1.30862 0.264669 4.52321e-20)
(1.30597 0.256522 -1.04345e-19)
(1.29483 0.244142 -4.9948e-20)
(1.28204 0.23029 3.81997e-20)
(1.2699 0.215945 4.37305e-21)
(1.25892 0.201857 -2.05419e-20)
(1.24888 0.1877 -2.6532e-20)
(1.24004 0.173547 -6.83013e-21)
(0.0948526 -0.00500361 3.89493e-20)
(0.429669 0.0339862 -1.70939e-20)
(0.802833 0.134074 -1.85632e-19)
(1.0793 0.211998 -6.73707e-20)
(1.23195 0.258049 -1.49194e-19)
(1.2947 0.274664 3.63491e-20)
(1.30891 0.273345 1.64999e-20)
(1.30255 0.26333 3.8327e-20)
(1.28986 0.249787 -1.84493e-20)
(1.27649 0.235149 2.69305e-20)
(1.26416 0.220218 -9.60069e-21)
(1.25313 0.205676 1.24176e-20)
(1.24312 0.191029 -1.15745e-21)
(1.23424 0.176789 -1.38442e-20)
(0.111373 -0.00327696 6.96221e-20)
(0.47127 0.0465606 -1.2043e-19)
(0.848554 0.153574 1.40659e-20)
(1.11206 0.230878 9.28605e-20)
(1.24899 0.273254 1.20588e-19)
(1.30012 0.286048 -8.25673e-20)
(1.30775 0.281916 4.84823e-20)
(1.29834 0.27012 6.91089e-21)
(1.28445 0.255452 -1.99334e-20)
(1.27066 0.240029 -2.04319e-20)
(1.25822 0.224501 2.34123e-20)
(1.24716 0.209481 2.27144e-20)
(1.23722 0.194343 -6.13464e-21)
(1.22834 0.179994 1.42806e-20)
(0.128879 -0.000670167 5.9603e-20)
(0.512784 0.060941 4.3953e-20)
(0.891481 0.17397 9.34132e-20)
(1.14104 0.249939 -3.64351e-20)
(1.26279 0.288294 -4.93467e-20)
(1.30337 0.297251 5.09058e-20)
(1.30534 0.2904 -5.28188e-20)
(1.29345 0.276899 -5.48989e-20)
(1.27864 0.261134 3.43259e-20)
(1.26456 0.244922 -2.02194e-20)
(1.25207 0.228783 -3.03938e-20)
(1.24103 0.213262 -2.20094e-20)
(1.23117 0.197633 1.35981e-20)
(1.2223 0.183154 -2.46079e-21)
(0.147265 0.00289993 -7.64764e-20)
(0.553798 0.0770451 3.49714e-20)
(0.931386 0.195133 -6.63676e-20)
(1.16633 0.269111 -1.41506e-20)
(1.2736 0.303158 5.72302e-20)
(1.30467 0.308288 3.39288e-21)
(1.30182 0.298811 -3.06823e-21)
(1.28794 0.283671 2.20725e-20)
(1.27245 0.266825 -2.17853e-20)
(1.25819 0.249814 2.1859e-20)
(1.2457 0.23305 1.57805e-20)
(1.23472 0.217008 1.62112e-20)
(1.22498 0.200888 -3.97357e-21)
(1.21615 0.186259 -2.25127e-21)
(0.1664 0.00750182 4.37524e-21)
(0.593916 0.0947682 2.27184e-20)
(0.968104 0.21694 -3.92472e-20)
(1.18807 0.288328 -8.97757e-21)
(1.28164 0.317832 -1.0017e-20)
(1.30422 0.319167 -6.46633e-21)
(1.29731 0.307158 -8.8761e-21)
(1.28186 0.290429 -1.80007e-20)
(1.26589 0.272512 9.29411e-21)
(1.25155 0.254692 9.8786e-21)
(1.23911 0.237289 -1.73318e-21)
(1.22822 0.220708 -8.30443e-22)
(1.21864 0.2041 -8.42599e-21)
(1.20986 0.189299 4.0191e-21)
(0.186135 0.0131865 3.67432e-21)
(0.63277 0.113988 -9.0714e-21)
(1.00153 0.239273 2.21869e-20)
(1.20639 0.307527 1.48522e-20)
(1.28713 0.332302 -5.08994e-21)
(1.3022 0.329896 -9.16514e-22)
(1.2919 0.315439 6.17518e-21)
(1.27525 0.297167 8.96846e-22)
(1.25898 0.278182 -1.58423e-21)
(1.24463 0.259541 -6.25134e-21)
(1.23229 0.241485 -1.65754e-22)
(1.22154 0.224348 -3.4405e-22)
(1.21214 0.207255 3.10498e-21)
(1.20344 0.192262 1.21257e-21)
(0.206306 0.0199855 3.11349e-21)
(0.670025 0.13457 -7.13714e-21)
(1.0316 0.262017 2.0502e-20)
(1.22144 0.326647 1.45343e-20)
(1.29028 0.346555 -4.14644e-21)
(1.29875 0.340473 -1.18202e-21)
(1.28568 0.323651 4.84384e-21)
(1.26814 0.30387 1.38523e-21)
(1.25171 0.283816 -1.52601e-21)
(1.23744 0.264344 -5.03001e-21)
(1.22525 0.245623 2.75114e-24)
(1.21468 0.227917 -1.13199e-22)
(1.20548 0.210342 1.71685e-21)
(1.1969 0.195139 6.17887e-22)
(0.226735 0.0279107 -9.5049e-22)
(0.705382 0.156368 2.23831e-20)
(1.05829 0.285061 -3.6912e-20)
(1.23338 0.345627 -1.2146e-20)
(1.29125 0.360575 -2.64107e-21)
(1.294 0.350894 -8.85131e-21)
(1.2787 0.331782 -8.55746e-21)
(1.26055 0.310521 -1.48098e-20)
(1.24408 0.289397 8.66274e-21)
(1.22996 0.269082 9.1851e-21)
(1.21797 0.249686 -2.51522e-21)
(1.20762 0.231401 -1.24891e-22)
(1.19867 0.213349 -3.60699e-21)
(1.19022 0.197918 2.0283e-22)
(0.247237 0.0369549 -7.99636e-20)
(0.738581 0.179228 3.95066e-20)
(1.08162 0.308296 -7.42285e-20)
(1.24237 0.364409 -9.36766e-21)
(1.29022 0.374341 6.23584e-20)
(1.28806 0.361149 -7.48927e-21)
(1.27102 0.339819 7.28989e-22)
(1.25249 0.3171 1.57936e-20)
(1.2361 0.294903 -1.26154e-20)
(1.22219 0.273737 9.99814e-21)
(1.21045 0.253657 8.51545e-21)
(1.20036 0.234787 5.2048e-21)
(1.19169 0.21626 -3.00765e-22)
(1.18343 0.200589 -7.97391e-22)
(0.267623 0.0470927 4.56899e-20)
(0.769402 0.202993 4.41935e-20)
(1.10162 0.331616 9.10337e-20)
(1.24855 0.382935 -1.68836e-20)
(1.28734 0.387834 -6.06941e-20)
(1.28101 0.371225 5.00325e-20)
(1.26266 0.34774 -3.88629e-20)
(1.24396 0.323585 -3.51307e-20)
(1.22777 0.300311 2.19881e-20)
(1.21414 0.278288 -1.31836e-20)
(1.20269 0.257519 -1.26615e-20)
(1.19291 0.23806 -7.32634e-21)
(1.18455 0.21906 2.48871e-21)
(1.1765 0.203139 -6.96222e-23)
(0.287701 0.0582828 5.75085e-20)
(0.797664 0.2275 -1.13862e-19)
(1.11835 0.354914 -1.68206e-21)
(1.25207 0.401149 9.5128e-20)
(1.28274 0.401028 8.89979e-20)
(1.27294 0.3811 -4.23052e-20)
(1.25367 0.355524 2.45871e-20)
(1.23498 0.329949 1.33826e-20)
(1.21908 0.305599 -1.42607e-20)
(1.2058 0.282716 -8.38536e-21)
(1.1947 0.261256 7.0002e-21)
(1.18526 0.241206 3.58652e-21)
(1.17726 0.221737 -2.04497e-22)
(1.16943 0.205554 -3.16716e-21)
(0.307286 0.0704695 4.86169e-20)
(0.823223 0.252584 -2.07702e-20)
(1.13189 0.378087 -1.71792e-19)
(1.25308 0.418996 -6.0245e-20)
(1.27654 0.413896 -1.43454e-19)
(1.26392 0.390753 3.4606e-20)
(1.24405 0.363142 1.51196e-20)
(1.22556 0.336167 1.72975e-20)
(1.21004 0.310742 1.26666e-21)
(1.19716 0.286999 8.38846e-21)
(1.18646 0.26485 -3.15998e-21)
(1.17742 0.244209 -1.90194e-21)
(1.16982 0.224287 2.53602e-22)
(1.16218 0.207831 2.42851e-21)
(0.326194 0.0835846 -2.73708e-21)
(0.845972 0.278082 2.66916e-19)
(1.14231 0.401032 6.9795e-20)
(1.25173 0.43642 -6.99024e-20)
(1.26884 0.426407 3.15589e-20)
(1.25398 0.400156 4.93727e-20)
(1.23384 0.370567 1.37753e-20)
(1.21569 0.342209 -3.85632e-20)
(1.20064 0.315715 -1.88759e-20)
(1.18823 0.291116 1.20609e-20)
(1.17798 0.26828 -3.3997e-22)
(1.16938 0.247048 -1.30766e-23)
(1.16224 0.226712 6.61459e-21)
(1.15475 0.209975 3.46013e-21)
(0.344253 0.0975485 -1.34496e-19)
(0.865839 0.303832 -2.53617e-19)
(1.14971 0.423647 7.82346e-21)
(1.24813 0.453366 8.47964e-20)
(1.25975 0.438529 3.32376e-20)
(1.24319 0.409279 -2.3725e-20)
(1.22306 0.377766 -1.95594e-20)
(1.20538 0.348047 5.02455e-20)
(1.19088 0.320492 3.01615e-21)
(1.17901 0.295046 -6.56156e-21)
(1.16927 0.27153 2.07283e-21)
(1.16115 0.249702 -4.61968e-21)
(1.15451 0.228995 -1.34717e-20)
(1.14724 0.211963 -2.0444e-20)
(0.361299 0.112271 5.86306e-20)
(0.882779 0.329673 -1.34854e-19)
(1.15419 0.445832 1.55007e-19)
(1.24243 0.469777 3.55731e-20)
(1.24935 0.450225 5.74419e-21)
(1.23159 0.418087 -5.75584e-20)
(1.2117 0.384707 -4.84041e-20)
(1.19463 0.353648 -3.94092e-20)
(1.18077 0.325046 2.22007e-20)
(1.16951 0.298767 -4.28008e-21)
(1.16032 0.274583 3.8831e-22)
(1.15275 0.252168 5.75589e-21)
(1.14658 0.231101 -1.61823e-20)
(1.13965 0.213787 8.13733e-21)
(0.377183 0.127654 1.82126e-19)
(0.896774 0.355449 6.43618e-20)
(1.15587 0.467488 -1.37236e-20)
(1.23475 0.4856 -2.007e-20)
(1.23772 0.461458 -4.80702e-20)
(1.21921 0.426546 -1.92789e-20)
(1.1998 0.391355 1.74766e-20)
(1.18345 0.358984 2.9194e-20)
(1.17032 0.329349 -9.53823e-21)
(1.15975 0.302255 2.90985e-21)
(1.15116 0.277414 -4.95805e-21)
(1.14418 0.254438 -4.20786e-21)
(1.13849 0.233021 3.11626e-20)
(1.13197 0.215425 1.8697e-20)
(0.391771 0.143591 -2.06886e-19)
(0.907827 0.381006 1.90846e-19)
(1.15484 0.488519 -1.27069e-19)
(1.22519 0.500777 3.41264e-20)
(1.22494 0.472186 1.15333e-19)
(1.20608 0.434617 7.51819e-20)
(1.18735 0.397673 5.45007e-20)
(1.17185 0.364023 -8.50854e-21)
(1.15954 0.333376 3.2579e-22)
(1.14971 0.305486 -9.01874e-21)
(1.14177 0.280011 1.47921e-20)
(1.13543 0.256493 -2.06835e-21)
(1.13026 0.234744 1.74504e-20)
(1.12419 0.216866 -1.78318e-20)
(0.404943 0.159968 7.36051e-20)
(0.915963 0.406195 -1.02981e-19)
(1.15123 0.50883 1.29882e-19)
(1.21387 0.515253 -8.30868e-20)
(1.21108 0.482369 -1.19977e-19)
(1.19224 0.442261 -4.12349e-20)
(1.17438 0.403624 -3.7196e-20)
(1.15986 0.368732 1.10957e-20)
(1.14845 0.337103 -5.04072e-21)
(1.13939 0.308441 2.62093e-20)
(1.13217 0.28235 -1.70074e-20)
(1.1265 0.258318 3.81064e-20)
(1.1219 0.236255 -3.44388e-20)
(1.11632 0.218097 3.22003e-20)
(0.416597 0.176668 -1.3681e-20)
(0.921226 0.430872 6.22443e-20)
(1.14515 0.528329 -3.89399e-19)
(1.2009 0.528973 8.04109e-20)
(1.19618 0.491964 -5.96373e-20)
(1.1777 0.449437 1.43469e-21)
(1.16093 0.409174 -8.57907e-21)
(1.14748 0.373077 2.05584e-21)
(1.13703 0.340505 7.50479e-21)
(1.12882 0.311098 -4.14557e-20)
(1.12237 0.284415 -2.48141e-20)
(1.11741 0.259898 -2.96178e-20)
(1.11341 0.237542 5.37462e-20)
(1.10836 0.21911 -2.23318e-20)
(0.426651 0.193567 6.90815e-20)
(0.923672 0.454896 1.16375e-19)
(1.13673 0.546926 1.45677e-19)
(1.18638 0.541883 -2.91046e-20)
(1.18031 0.500927 5.28792e-20)
(1.16255 0.456105 3.8684e-20)
(1.147 0.414284 1.52394e-20)
(1.13471 0.377029 -3.6206e-21)
(1.1253 0.343552 2.82636e-20)
(1.11801 0.313436 3.50617e-20)
(1.11238 0.286188 -2.41076e-20)
(1.10817 0.261218 3.85739e-20)
(1.1048 0.23859 -4.02679e-20)
(1.10032 0.219893 -3.78638e-20)
(0.435037 0.21054 -1.37698e-19)
(0.923376 0.478132 -2.19838e-19)
(1.12607 0.564536 2.01683e-19)
(1.1704 0.55393 -4.07508e-20)
(1.16354 0.509207 -7.39051e-21)
(1.1468 0.462224 1.40433e-20)
(1.1326 0.418917 -5.14256e-21)
(1.12158 0.380559 1.92068e-20)
(1.11328 0.346221 -3.30993e-21)
(1.10697 0.315433 3.7308e-20)
(1.1022 0.287653 4.2552e-20)
(1.09878 0.262262 -5.78379e-20)
(1.09608 0.239388 -1.15812e-20)
(1.09222 0.220438 -3.48077e-20)
(0.441706 0.227459 -2.75054e-20)
(0.920423 0.500449 -1.69286e-19)
(1.11332 0.581074 -1.88689e-19)
(1.15307 0.565058 4.5454e-21)
(1.14593 0.516767 1.52732e-20)
(1.13046 0.467745 3.30314e-21)
(1.11776 0.423042 -1.23849e-21)
(1.10809 0.383636 -2.79786e-21)
(1.10099 0.348486 -3.34742e-21)
(1.09571 0.317068 -8.10422e-20)
(1.09186 0.288792 2.04287e-20)
(1.08926 0.263019 -3.70064e-20)
(1.08725 0.239922 4.02696e-20)
(1.08406 0.220735 6.4246e-20)
(0.446629 0.244195 1.50568e-19)
(0.914908 0.521724 7.84922e-20)
(1.09858 0.596461 1.35492e-19)
(1.13449 0.575215 1.15813e-19)
(1.12755 0.523564 -1.12554e-20)
(1.11357 0.472629 4.31777e-21)
(1.1025 0.426621 1.72408e-20)
(1.09428 0.38623 1.21682e-20)
(1.08844 0.350323 2.93399e-20)
(1.08426 0.318322 3.95636e-20)
(1.08137 0.289589 -1.52892e-20)
(1.07962 0.263474 1.54552e-20)
(1.07833 0.240179 -5.20179e-20)
(1.07585 0.220775 -7.70327e-20)
(0.449791 0.260621 -2.26317e-19)
(0.906937 0.541839 4.14881e-19)
(1.08198 0.610617 -9.50768e-20)
(1.11474 0.584347 -8.95455e-20)
(1.10843 0.529553 -8.74332e-21)
(1.09616 0.47684 -4.88277e-22)
(1.08686 0.429619 -2.59712e-20)
(1.08017 0.388315 -6.88034e-20)
(1.07566 0.35171 -1.18677e-19)
(1.07262 0.319176 -9.33306e-21)
(1.07074 0.290031 1.09775e-23)
(1.06987 0.263614 7.86536e-20)
(1.06932 0.240148 6.99617e-20)
(1.0676 0.220548 6.50504e-20)
(0.451196 0.276612 4.00149e-20)
(0.896638 0.56069 -3.81277e-19)
(1.06363 0.62346 -7.54361e-20)
(1.09392 0.592402 3.9256e-20)
(1.08865 0.534691 -5.07056e-21)
(1.07828 0.480339 -4.62721e-22)
(1.07085 0.432004 4.98622e-20)
(1.06577 0.389863 7.33771e-20)
(1.06266 0.352623 9.00342e-20)
(1.06082 0.319611 -1.11502e-19)
(1.05998 0.2901 -1.86109e-20)
(1.06003 0.263429 -7.27057e-20)
(1.06024 0.239817 -2.48526e-21)
(1.05933 0.220044 -6.24764e-20)
(0.45087 0.292042 -2.87659e-19)
(0.884169 0.5782 2.7467e-19)
(1.04362 0.634903 7.67803e-21)
(1.07212 0.59932 1.69952e-20)
(1.06824 0.538938 3.64556e-21)
(1.05996 0.483091 1.66195e-20)
(1.05451 0.433744 -8.49248e-20)
(1.05113 0.390849 -1.04178e-19)
(1.04947 0.353043 -5.8689e-21)
(1.04888 0.31961 2.08959e-19)
(1.04913 0.289785 2.73349e-20)
(1.05011 0.262908 2.06516e-20)
(1.0511 0.239174 1.22225e-20)
(1.05105 0.219255 -7.53653e-21)
(0.44886 0.30678 3.48699e-19)
(0.869688 0.594311 -2.2391e-19)
(1.02202 0.644873 9.77762e-20)
(1.04942 0.605035 -1.61514e-20)
(1.04728 0.542251 -1.12367e-20)
(1.04125 0.48506 6.23836e-21)
(1.03788 0.43481 -3.95032e-21)
(1.03626 0.391248 1.45622e-20)
(1.03611 0.352949 5.19682e-23)
(1.03682 0.319157 -3.74869e-20)
(1.03819 0.289071 -4.1997e-20)
(1.04012 0.262039 -9.34552e-20)
(1.04191 0.23821 -2.11153e-19)
(1.04277 0.218171 1.29454e-19)
(0.445223 0.320689 -1.78624e-19)
(0.853242 0.6089 1.9575e-19)
(0.999049 0.653381 -5.33938e-20)
(1.02594 0.60949 1.64916e-20)
(1.02582 0.544591 -3.80602e-20)
(1.0222 0.486214 -1.13212e-19)
(1.02098 0.435175 7.26448e-20)
(1.02119 0.391038 1.60282e-20)
(1.02261 0.352323 -6.31755e-20)
(1.02466 0.318236 -1.2777e-19)
(1.02719 0.287948 -1.05406e-20)
(1.03009 0.260813 5.20505e-20)
(1.0327 0.236911 -7.92704e-20)
(1.03452 0.216781 9.88048e-20)
(0.44001 0.333659 6.12939e-20)
(0.834837 0.621779 1.473e-20)
(0.974928 0.660431 5.3263e-20)
(1.00176 0.612668 -3.09352e-20)
(1.00394 0.545921 9.01049e-20)
(1.00284 0.486524 1.84775e-19)
(1.00387 0.434814 7.20387e-20)
(1.00596 0.3902 9.36563e-20)
(1.009 0.351149 -2.98969e-20)
(1.01242 0.316833 5.67843e-20)
(1.01616 0.286403 3.90833e-20)
(1.02004 0.259221 7.38096e-21)
(1.02347 0.235262 8.3485e-20)
(1.0263 0.215063 -2.04687e-19)
(0.433283 0.345623 8.59147e-20)
(0.814612 0.632834 -1.65493e-20)
(0.949781 0.665946 -7.79856e-21)
(0.976987 0.614558 6.03945e-22)
(0.981683 0.546211 -7.96646e-20)
(0.98323 0.485962 -3.00225e-20)
(0.986568 0.433704 1.26065e-19)
(0.990604 0.388713 -3.94466e-20)
(0.995292 0.34941 9.33289e-20)
(1.00014 0.314937 9.60639e-20)
(1.0051 0.284427 -2.26181e-20)
(1.00997 0.257255 3.4285e-20)
(1.01423 0.233249 1.79229e-19)
(1.01813 0.212988 -2.80077e-20)
(0.425117 0.35652 8.4758e-20)
(0.792772 0.642019 -5.74882e-20)
(0.923694 0.669833 -7.65763e-21)
(0.951693 0.615137 1.27308e-20)
(0.959124 0.545432 -4.36007e-20)
(0.963412 0.484502 -1.83096e-19)
(0.969124 0.431824 -9.87755e-20)
(0.975149 0.386562 4.98513e-20)
(0.981531 0.347094 9.2371e-20)
(0.987828 0.312535 -2.55656e-20)
(0.994043 0.282012 3.93399e-21)
(0.999912 0.254908 6.63413e-21)
(1.00502 0.230863 1.42359e-20)
(1.01006 0.210557 3.58729e-19)
(0.415547 0.366251 -5.80382e-20)
(0.769554 0.649336 -1.08168e-22)
(0.896789 0.672035 -6.24176e-20)
(0.925972 0.614379 6.60637e-20)
(0.936326 0.54356 1.53945e-19)
(0.94344 0.482123 9.26642e-21)
(0.95158 0.429158 -5.31913e-20)
(0.959633 0.383731 -5.62598e-21)
(0.967743 0.344189 -6.86972e-20)
(0.975522 0.309619 5.49652e-20)
(0.983007 0.279149 5.14138e-20)
(0.989862 0.252167 -7.05554e-20)
(0.99589 0.228101 -9.03315e-20)
(1.00233 0.20783 5.39714e-20)
(0.404631 0.374671 -2.68182e-20)
(0.745127 0.654723 -4.66412e-22)
(0.869179 0.672525 1.67058e-19)
(0.899912 0.612258 -2.75504e-20)
(0.913353 0.540573 -9.79364e-20)
(0.923364 0.478806 2.32058e-19)
(0.933977 0.425689 -9.74063e-20)
(0.944093 0.38021 -9.21443e-21)
(0.953958 0.340684 -2.51349e-19)
(0.963244 0.306181 -9.57779e-20)
(0.972 0.275829 -6.08326e-20)
(0.979841 0.249012 -1.56335e-19)
(0.986972 0.224933 -1.02465e-19)
(0.99519 0.204846 -2.86568e-19)
(0.39252 0.381734 -4.61541e-20)
(0.719631 0.658123 6.38935e-20)
(0.84099 0.671275 -1.98837e-19)
(0.873604 0.608753 1.23246e-19)
(0.890273 0.536454 3.58369e-20)
(0.903239 0.474535 -3.75103e-19)
(0.916361 0.421405 3.58077e-20)
(0.928567 0.375987 -1.75846e-19)
(0.940209 0.336572 1.657e-19)
(0.951016 0.302215 -1.44822e-21)
(0.961035 0.272048 1.01424e-19)
(0.969891 0.245428 3.51798e-19)
(0.978375 0.221292 -2.25743e-19)
(0.98841 0.20139 2.18441e-20)
(0.379335 0.387384 5.2098e-20)
(0.693217 0.659491 -7.17334e-20)
(0.812347 0.668265 2.75607e-19)
(0.84714 0.603847 -3.41669e-19)
(0.867152 0.531187 -4.79146e-20)
(0.883119 0.469297 -2.99534e-20)
(0.898777 0.416297 3.0488e-19)
(0.913093 0.371056 2.48421e-19)
(0.926529 0.331849 -1.98385e-19)
(0.938862 0.29772 -4.12223e-21)
(0.95014 0.267805 -1.21615e-19)
(0.960078 0.24144 -3.1298e-19)
(0.970095 0.217242 1.50179e-19)
(0.981121 0.196173 -2.9354e-20)
(0.365194 0.391567 -9.80608e-20)
(0.666038 0.658798 -1.08774e-19)
(0.783379 0.663483 -3.55625e-19)
(0.820609 0.597529 8.4558e-20)
(0.84406 0.524763 -9.89964e-20)
(0.863059 0.463083 9.4263e-20)
(0.881272 0.410356 -2.59251e-19)
(0.89771 0.365411 1.88988e-20)
(0.912949 0.326509 2.82172e-21)
(0.926809 0.292693 -2.55769e-19)
(0.939355 0.263097 1.59815e-19)
(0.950455 0.237058 1.88557e-19)
(0.961806 0.21321 8.39802e-20)
(0.972884 0.192286 3.34258e-19)
(0.350215 0.394239 1.28914e-19)
(0.638251 0.656024 3.17139e-19)
(0.754211 0.656919 1.70284e-19)
(0.794105 0.589791 8.14528e-20)
(0.821065 0.517174 2.41716e-19)
(0.843116 0.455888 3.72163e-19)
(0.863892 0.403581 8.14548e-20)
(0.882458 0.35905 5.44298e-20)
(0.899502 0.320553 4.28376e-19)
(0.914886 0.287131 -1.05147e-19)
(0.928712 0.257916 2.00747e-21)
(0.941014 0.232227 -1.92995e-19)
(0.953533 0.208669 1.48467e-19)
(0.964822 0.187788 7.63928e-21)
(0.33452 0.395363 2.30441e-19)
(0.610012 0.651157 -9.61517e-20)
(0.724968 0.648573 2.29759e-19)
(0.767717 0.580631 -4.72123e-20)
(0.798238 0.508419 2.44368e-20)
(0.823347 0.44771 -7.81953e-20)
(0.846684 0.395969 2.04403e-19)
(0.867376 0.351972 -2.46853e-21)
(0.886222 0.31398 -1.73504e-19)
(0.903121 0.281036 3.29732e-19)
(0.918236 0.252272 -1.53269e-19)
(0.931736 0.226997 1.08026e-19)
(0.945283 0.203836 -1.61453e-20)
(0.956919 0.183289 -4.27457e-19)
(0.318231 0.394915 -1.13493e-19)
(0.581475 0.644196 -2.9618e-19)
(0.695775 0.638452 -1.92702e-19)
(0.741538 0.570054 3.25646e-19)
(0.775647 0.498498 -2.80187e-20)
(0.803809 0.43855 1.14346e-19)
(0.829698 0.387522 -2.27431e-19)
(0.852506 0.344181 -3.63683e-19)
(0.873141 0.306794 1.89207e-19)
(0.891546 0.274411 -8.54698e-20)
(0.907951 0.246164 2.23122e-19)
(0.922628 0.221353 4.29769e-21)
(0.937121 0.198639 -2.69041e-19)
(0.949228 0.178522 1.21343e-20)
(0.301473 0.392879 -2.80894e-19)
(0.552794 0.635145 9.8087e-20)
(0.666754 0.626567 -2.36899e-19)
(0.715655 0.558067 -2.62641e-19)
(0.753364 0.487418 -1.0142e-19)
(0.784559 0.428413 9.35866e-20)
(0.81298 0.378247 -2.55207e-19)
(0.837886 0.33568 2.43269e-19)
(0.860294 0.298999 -3.32655e-19)
(0.88019 0.26726 2.23423e-19)
(0.897877 0.239599 2.22958e-19)
(0.913705 0.215313 -7.18365e-20)
(0.929097 0.193116 2.77489e-19)
(0.941767 0.173506 3.1127e-19)
(0.284369 0.389246 6.97468e-20)
(0.52412 0.624019 2.18858e-20)
(0.638025 0.612936 4.30022e-19)
(0.69016 0.544684 3.46491e-19)
(0.731457 0.47519 1.69153e-19)
(0.765654 0.417309 -9.66239e-20)
(0.796578 0.36815 -1.92373e-19)
(0.823557 0.326479 -1.18048e-19)
(0.847714 0.290601 1.34622e-19)
(0.869082 0.259589 -4.2779e-19)
(0.888037 0.232583 -2.06837e-19)
(0.904985 0.20888 -1.42088e-19)
(0.921247 0.187264 8.3203e-20)
(0.93454 0.168212 -4.88106e-19)
(0.267042 0.384018 3.28864e-20)
(0.4956 0.610844 -8.77617e-20)
(0.609704 0.597586 1.05106e-20)
(0.665138 0.529924 -4.76355e-19)
(0.709995 0.461827 -1.42191e-19)
(0.747151 0.40525 -2.90467e-19)
(0.780539 0.357243 5.8869e-20)
(0.809558 0.316585 -1.54792e-19)
(0.835436 0.281611 -9.30023e-20)
(0.85825 0.251408 1.66148e-19)
(0.878454 0.225123 -2.00945e-19)
(0.896492 0.202065 -6.60291e-20)
(0.913599 0.181088 -3.22059e-20)
(0.927556 0.162635 5.25643e-19)
(0.249613 0.377204 9.15264e-21)
(0.467382 0.595651 -9.32382e-20)
(0.581908 0.580547 1.32219e-19)
(0.640675 0.513811 1.54004e-19)
(0.689046 0.447349 3.05909e-20)
(0.729107 0.392252 5.09893e-19)
(0.764911 0.345541 -1.59858e-19)
(0.795929 0.306013 3.94815e-19)
(0.823491 0.272039 1.0045e-19)
(0.847724 0.242725 -2.98095e-19)
(0.869149 0.21723 2.12426e-19)
(0.888246 0.194875 3.99207e-19)
(0.906176 0.174593 -2.03413e-19)
(0.920822 0.15677 -3.88524e-19)
(0.232203 0.368821 1.07445e-19)
(0.439606 0.578482 -2.13976e-19)
(0.554747 0.561856 -7.84302e-19)
(0.616857 0.496376 -2.01409e-19)
(0.668677 0.43178 2.52019e-19)
(0.711575 0.378336 1.21399e-21)
(0.749739 0.33306 1.73949e-19)
(0.782707 0.294778 -2.63529e-19)
(0.811913 0.261899 -3.91352e-19)
(0.837529 0.233552 2.8703e-19)
(0.860145 0.208913 2.96396e-20)
(0.88027 0.187321 -1.47804e-20)
(0.899001 0.167783 1.99373e-19)
(0.914345 0.150622 2.11593e-19)
(0.214929 0.358897 -3.12426e-19)
(0.412413 0.559384 1.62252e-19)
(0.52833 0.541559 1.90888e-19)
(0.593765 0.477651 4.65076e-20)
(0.648953 0.415146 5.73988e-20)
(0.694611 0.363523 -3.47666e-19)
(0.735069 0.319821 -7.16416e-20)
(0.769932 0.282896 -9.01841e-20)
(0.800734 0.251205 5.20941e-19)
(0.827693 0.223902 7.9293e-20)
(0.851466 0.200184 1.55292e-20)
(0.872583 0.179413 -3.53434e-19)
(0.89209 0.160666 5.04886e-20)
(0.908136 0.144196 -1.21979e-19)
(0.197908 0.347463 1.66382e-19)
(0.385934 0.538415 7.51425e-19)
(0.502762 0.519704 3.91616e-19)
(0.571477 0.457676 4.64925e-19)
(0.629937 0.39748 -4.80047e-19)
(0.678267 0.347842 9.86915e-20)
(0.720944 0.305847 1.73674e-20)
(0.75764 0.270387 5.44508e-19)
(0.789984 0.239975 -5.73455e-19)
(0.818243 0.213792 -2.88096e-19)
(0.843133 0.191057 -1.79496e-19)
(0.865206 0.171161 -1.40539e-19)
(0.88546 0.153249 -2.47305e-19)
(0.902204 0.1375 1.65851e-19)
(0.181251 0.334563 -1.8238e-20)
(0.3603 0.515638 -2.86997e-19)
(0.478143 0.496347 1.32742e-19)
(0.550072 0.436494 3.17333e-21)
(0.611692 0.378817 1.5549e-19)
(0.662595 0.331322 1.60209e-21)
(0.707407 0.291163 1.37062e-19)
(0.745866 0.257275 8.50685e-20)
(0.779694 0.228228 5.43118e-19)
(0.809202 0.203237 5.05827e-19)
(0.835167 0.181547 2.05427e-19)
(0.858157 0.162578 3.55062e-19)
(0.879129 0.145542 1.32484e-19)
(0.89656 0.130545 2.80018e-20)
(0.165067 0.320245 2.00936e-19)
(0.335632 0.491123 -2.46512e-20)
(0.454568 0.47155 -1.09702e-19)
(0.529622 0.414154 -1.25916e-19)
(0.594277 0.359197 4.26783e-19)
(0.647643 0.313997 6.47229e-20)
(0.6945 0.275798 4.26774e-20)
(0.734646 0.243582 -4.38615e-19)
(0.769893 0.215985 2.16998e-19)
(0.800595 0.192255 -1.76782e-19)
(0.827589 0.171668 5.82053e-20)
(0.851454 0.153678 -3.89746e-19)
(0.873112 0.137556 1.08417e-19)
(0.891213 0.123341 5.23227e-20)
(0.149459 0.304566 4.9262e-20)
(0.31205 0.464949 -1.12252e-19)
(0.432131 0.445378 -3.38812e-19)
(0.510199 0.390709 4.96699e-19)
(0.577748 0.338662 -7.0525e-19)
(0.63346 0.295903 -2.14425e-19)
(0.682261 0.259783 -3.2903e-19)
(0.724012 0.229337 3.54502e-19)
(0.760608 0.203269 -3.62436e-19)
(0.792447 0.180866 -3.93124e-19)
(0.820419 0.161439 2.14734e-19)
(0.845113 0.144475 7.53202e-20)
(0.867422 0.129303 -9.80042e-20)
(0.886173 0.115901 -8.85663e-20)
(0.134526 0.287589 -4.69429e-19)
(0.289664 0.4372 -2.45718e-19)
(0.410917 0.417904 1.02996e-19)
(0.491868 0.366215 -2.41494e-19)
(0.56216 0.317259 2.12187e-19)
(0.62009 0.277079 2.751e-19)
(0.67073 0.243151 1.46083e-19)
(0.713997 0.214566 -8.39806e-20)
(0.751867 0.190104 -3.4212e-19)
(0.784779 0.169092 1.47781e-19)
(0.813674 0.150878 1.38693e-19)
(0.839151 0.134985 1.7768e-19)
(0.862073 0.120797 3.84045e-20)
(0.881451 0.108238 -1.69174e-19)
(0.120362 0.269383 6.74867e-20)
(0.268579 0.407966 2.28922e-19)
(0.391009 0.389203 3.18654e-19)
(0.474694 0.340734 -5.54724e-19)
(0.547565 0.295039 -4.61966e-19)
(0.607577 0.257568 -2.4041e-19)
(0.659943 0.225939 -4.06508e-19)
(0.704631 0.199303 1.87718e-19)
(0.743694 0.176518 4.68783e-19)
(0.777612 0.156955 2.33559e-19)
(0.807373 0.140004 -2.37555e-19)
(0.833582 0.125224 -2.24124e-19)
(0.857079 0.112051 1.83828e-19)
(0.877053 0.100366 1.23692e-19)
(0.107056 0.250024 -2.92315e-19)
(0.248895 0.377344 2.42499e-19)
(0.372483 0.359356 -1.89119e-19)
(0.458736 0.314329 3.36334e-19)
(0.534011 0.272055 -1.3493e-21)
(0.595961 0.237414 2.36617e-19)
(0.649932 0.208184 2.01547e-19)
(0.695942 0.183577 -2.21308e-19)
(0.736115 0.162537 -2.4506e-19)
(0.770967 0.14448 -6.51702e-20)