/*--------------------------------*- C++ -*----------------------------------*\
  =========                 |
  \\      /  F ield         | OpenFOAM: The Open Source CFD Toolbox
   \\    /   O peration     | Website:  https://openfoam.org
    \\  /    A nd           | Version:  7
     \\/     M anipulation  |
\*---------------------------------------------------------------------------*/
FoamFile
{
    version     2.0;
    format      ascii;
    class       volScalarField;
    location    "25";
    object      p;
}
// * * * * * * * * * * * * * * * * * * * * * * * * * * * * * * * * * * * * * //

dimensions      [0 2 -2 0 0 0 0];

internalField   nonuniform List<scalar> 
8330
(
0.0219752
0.0204522
0.0188523
0.0171588
0.0153527
0.0168314
0.0134135
0.0152534
0.0113178
0.0135655
0.0090436
0.0117525
0.00658464
0.00978554
0.0136247
0.00390963
0.00765624
0.0118731
0.000994145
0.00535043
0.00995544
0.015285
-0.00218135
0.00285085
0.00785406
0.0136653
-0.00563529
0.000140633
0.00555197
0.0118718
-0.00938502
-0.00279646
0.00303312
0.0098964
0.0160467
-0.0134461
-0.00597634
0.000283107
0.00773406
0.0144406
-0.017832
-0.00941453
-0.00270986
0.00538141
0.0126874
0.019953
-0.0225539
-0.0131258
-0.00595388
0.00283506
0.0107892
0.0189146
0.0276779
-0.0276204
-0.0171232
-0.00945277
9.05574e-05
0.00875813
0.0178941
0.0278827
-0.0330371
-0.0214174
-0.0132063
-0.0028566
0.00662059
0.0169355
0.0282557
0.0402142
-0.0388063
-0.0260145
-0.0172112
-0.00600696
0.00441745
0.0160828
0.028821
0.0420092
0.0549636
-0.0449263
-0.0309146
-0.0214628
-0.00935117
0.0022008
0.0153788
0.0296002
0.0440165
0.0578944
0.0707314
-0.0513905
-0.0361104
-0.0259558
-0.0128642
2.91518e-05
0.0148635
0.0306126
0.0462445
0.0610169
0.0745061
0.0866384
-0.0581863
-0.0415861
-0.0306826
-0.0165022
-0.00203692
0.0145746
0.0318765
0.0487022
0.0643381
0.078451
0.0910119
0.101952
-0.0652936
-0.0473176
-0.0356308
-0.0202033
-0.00393741
0.0145473
0.0334094
0.0513999
0.0678664
0.0825749
0.095546
0.106815
0.116877
-0.0726831
-0.0532734
-0.0407773
-0.0238914
-0.00561392
0.0148149
0.0352289
0.054349
0.071612
0.0868875
0.10025
0.11183
0.122069
0.130287
-0.0803144
-0.0594159
-0.0460835
-0.0274819
-0.00700983
0.0154091
0.037353
0.0575623
0.0755861
0.0913995
0.105133
0.117007
0.127405
0.135806
-0.0881347
-0.065702
-0.0514911
-0.0308873
-0.00807019
0.0163603
0.0397999
0.0610539
0.0798011
0.0961221
0.110206
0.122352
0.132891
0.141466
-0.0960775
-0.072083
-0.0569197
-0.0340208
-0.00874182
0.017698
0.0425885
0.0648386
0.0842701
0.101067
0.115477
0.127872
0.138534
0.147271
-0.104063
-0.078504
-0.0622691
-0.0367981
-0.0089735
0.0194514
0.0457381
0.0689321
0.0890064
0.106245
0.120956
0.133574
0.144337
0.153223
-0.111999
-0.0849022
-0.0674223
-0.0391384
-0.00871633
0.021649
0.0492687
0.0733506
0.0940237
0.111668
0.126652
0.139465
0.150307
0.159326
-0.119782
-0.0912053
-0.0722517
-0.040964
-0.00792391
0.0243189
0.0532001
0.0781105
0.0993358
0.117347
0.132573
0.145551
0.156449
0.165582
-0.127301
-0.09733
-0.0766259
-0.0422003
-0.00655246
0.0274887
0.0575526
0.0832282
0.104956
0.123293
0.138728
0.151837
0.162766
0.171994
-0.134438
-0.103181
-0.0804147
-0.0427757
-0.00456096
0.0311849
0.062346
0.0887197
0.110896
0.129516
0.145123
0.158328
0.169263
0.178562
-0.141074
-0.10865
-0.0834945
-0.0426222
-0.0019111
0.035433
0.0675997
0.0946003
0.11717
0.136025
0.151764
0.165029
0.175943
0.185288
-0.147086
-0.113619
-0.085751
-0.0416761
0.00143266
0.0402572
0.073332
0.100885
0.123788
0.142827
0.158658
0.171943
0.182809
0.192172
-0.152354
-0.117962
-0.087081
-0.0398782
0.00550299
0.0456801
0.0795606
0.107586
0.130759
0.149931
0.165809
0.179074
0.189861
0.19921
-0.15676
-0.121544
-0.0873931
-0.0371751
0.0103297
0.0517224
0.0863013
0.114717
0.138094
0.157343
0.173221
0.186424
0.197101
0.2064
-0.16019
-0.124231
-0.0866073
-0.0335196
0.0159393
0.0584027
0.0935685
0.122288
0.145799
0.165067
0.180896
0.193994
0.204527
0.213735
-0.162534
-0.125891
-0.0846553
-0.0288707
0.0223553
0.0657374
0.101375
0.130309
0.15388
0.173107
0.188837
0.201788
0.21214
0.221211
-0.163689
-0.126396
-0.0814792
-0.0231945
0.0295976
0.0737402
0.10973
0.138785
0.162342
0.181465
0.197044
0.209805
0.219941
0.228849
-0.163557
-0.125628
-0.0770312
-0.016464
0.0376822
0.0824224
0.118643
0.147722
0.171187
0.190141
0.205517
0.218042
0.22792
0.2367
-0.162047
-0.123483
-0.0712702
-0.00865842
0.0466215
0.0917922
0.128119
0.157124
0.180416
0.199137
0.214257
0.226495
0.236054
0.244786
-0.159079
-0.11987
-0.0641631
0.000236727
0.0564239
0.101855
0.13816
0.166991
0.19003
0.208452
0.223265
0.235157
0.244347
0.252992
-0.154577
-0.114712
-0.0556855
0.01023
0.0670934
0.112611
0.148766
0.177323
0.200027
0.218082
0.232531
0.244003
0.252864
0.261261
-0.148477
-0.10795
-0.0458221
0.0213237
0.0786294
0.124062
0.15994
0.188119
0.2104
0.228015
0.242026
0.253053
0.261572
0.269627
-0.140724
-0.0995374
-0.0345665
0.0335139
0.0910265
0.136205
0.171678
0.199368
0.221134
0.238241
0.251763
0.262298
0.270443
0.278107
-0.131271
-0.0894428
-0.0219206
0.0467909
0.104277
0.149035
0.18397
0.211049
0.232224
0.248761
0.261732
0.271732
0.27946
0.2867
-0.120084
-0.07765
-0.00789466
0.061142
0.118375
0.162537
0.196786
0.223163
0.243666
0.259563
0.271925
0.281345
0.288615
0.295399
-0.107138
-0.0641567
0.00749314
0.0765511
0.133325
0.17667
0.210111
0.235701
0.255446
0.270633
0.28233
0.291126
0.297899
0.304195
-0.0924222
-0.0489744
0.0242176
0.0929943
0.149105
0.191399
0.223947
0.248646
0.267548
0.281958
0.292934
0.301063
0.307303
0.313076
-0.0759356
-0.0321274
0.0422466
0.110435
0.165599
0.20679
0.238271
0.261978
0.279956
0.293523
0.303723
0.311144
0.316815
0.322028
-0.0576898
-0.01365
0.0615377
0.128834
0.182826
0.222777
0.25306
0.275675
0.292652
0.305311
0.314681
0.321355
0.326424
0.331038
-0.0377084
0.00641472
0.0820386
0.148146
0.200767
0.239321
0.26829
0.289714
0.305614
0.317303
0.325793
0.331682
0.336116
0.340092
-0.0160283
0.0280014
0.103708
0.168331
0.219384
0.256389
0.283929
0.304071
0.318821
0.329481
0.337041
0.342109
0.345876
0.349171
0.00729626
0.050985
0.126559
0.189348
0.238633
0.273945
0.299946
0.318719
0.332249
0.341822
0.348405
0.35262
0.355688
0.358256
0.0321951
0.0751866
0.150625
0.211173
0.258465
0.291948
0.316308
0.333627
0.345873
0.354304
0.359867
0.363199
0.365532
0.367322
0.0585961
0.100596
0.175758
0.233748
0.278828
0.310356
0.332978
0.348766
0.359665
0.366905
0.371407
0.373828
0.375392
0.376345
0.0864299
0.127676
0.201342
0.256968
0.299669
0.329122
0.349917
0.364102
0.373598
0.379599
0.383001
0.384492
0.385257
0.385306
0.115593
0.155968
0.227607
0.280747
0.320935
0.3482
0.367085
0.379601
0.387642
0.39236
0.394629
0.395175
0.395115
0.394182
0.145988
0.185315
0.254551
0.305012
0.342564
0.367541
0.384439
0.395228
0.401767
0.405161
0.406269
0.405869
0.404939
0.402862
0.177574
0.215506
0.282111
0.32969
0.364494
0.387092
0.401936
0.410945
0.415939
0.417975
0.417908
0.416568
0.414656
0.41107
0.210182
0.246433
0.310195
0.354706
0.386662
0.4068
0.419531
0.426714
0.430127
0.430777
0.429534
0.427254
0.424151
0.418598
0.243661
0.277997
0.338706
0.379983
0.409
0.42661
0.437176
0.442494
0.444295
0.44354
0.441127
0.437871
0.433356
0.425991
0.277875
0.310083
0.36754
0.405442
0.431442
0.446466
0.454824
0.458245
0.45841
0.456239
0.452653
0.448334
0.442282
0.434659
0.312682
0.342563
0.396594
0.430999
0.453918
0.466308
0.472426
0.473926
0.472437
0.468845
0.464068
0.45861
0.451267
0.443647
0.347935
0.375311
0.425758
0.456571
0.476357
0.486079
0.489932
0.489494
0.486342
0.481326
0.47534
0.468723
0.460305
0.452517
0.383481
0.408193
0.454926
0.48207
0.498687
0.505719
0.507292
0.504907
0.500088
0.493649
0.486442
0.478678
0.469321
0.461211
0.419166
0.441077
0.483987
0.507411
0.520838
0.525167
0.524455
0.520123
0.51364
0.505783
0.497349
0.488462
0.478238
0.469667
0.454836
0.473828
0.512834
0.532506
0.542736
0.544362
0.541371
0.535098
0.526962
0.517695
0.50804
0.498058
0.487003
0.477876
0.490334
0.506313
0.541357
0.557267
0.564309
0.563246
0.557989
0.549791
0.540017
0.529353
0.518488
0.50744
0.495577
0.485831
0.525505
0.538396
0.569449
0.581608
0.585485
0.581757
0.574259
0.564159
0.552769
0.540727
0.528671
0.516584
0.50393
0.493524
0.560194
0.569945
0.597003
0.605442
0.606193
0.599837
0.59013
0.578159
0.565182
0.551787
0.538562
0.525465
0.512036
0.500947
0.594248
0.60083
0.623916
0.628684
0.626362
0.617427
0.605555
0.591751
0.577221
0.562504
0.548136
0.534059
0.519873
0.50809
0.627516
0.630922
0.650083
0.651252
0.645925
0.634469
0.620485
0.604895
0.588852
0.572847
0.557369
0.542343
0.527422
0.514942
0.65985
0.660099
0.675407
0.673064
0.664813
0.650908
0.634873
0.61755
0.600041
0.582789
0.566237
0.550296
0.534664
0.521491
0.691106
0.688239
0.699789
0.694041
0.682962
0.666689
0.648673
0.629679
0.610756
0.592302
0.574717
0.557897
0.541581
0.527726
0.721145
0.715228
0.723137
0.714108
0.700308
0.68176
0.661842
0.641244
0.620967
0.60136
0.582784
0.565126
0.548156
0.533635
0.749833
0.740954
0.745362
0.733191
0.716792
0.696071
0.674338
0.65221
0.630641
0.609937
0.590418
0.571965
0.554373
0.539205
0.777043
0.765312
0.766377
0.751222
0.732355
0.709574
0.68612
0.662543
0.639752
0.61801
0.597599
0.578394
0.560216
0.544427
0.802654
0.788201
0.786104
0.768134
0.746944
0.722223
0.697151
0.672212
0.648272
0.625554
0.604306
0.584399
0.56567
0.549289
0.826551
0.809528
0.804466
0.783865
0.760506
0.733976
0.707394
0.681185
0.656175
0.632548
0.610521
0.589961
0.570722
0.553782
0.848629
0.829206
0.821392
0.798357
0.772994
0.744793
0.716817
0.689436
0.663439
0.638973
0.616228
0.595068
0.575358
0.557896
0.86879
0.847154
0.836818
0.811559
0.784364
0.754637
0.725388
0.696938
0.67004
0.64481
0.62141
0.599704
0.579565
0.561623
0.886944
0.863298
0.850684
0.82342
0.794576
0.763474
0.733081
0.703668
0.67596
0.650042
0.626053
0.603857
0.583334
0.564955
0.90301
0.877573
0.862938
0.833897
0.803594
0.771275
0.739868
0.709604
0.681179
0.654654
0.630144
0.607516
0.586654
0.567885
0.916918
0.889921
0.873531
0.842952
0.811385
0.778013
0.745729
0.714728
0.685684
0.658632
0.633672
0.610671
0.589516
0.570407
0.928605
0.90029
0.882424
0.850551
0.817922
0.783665
0.750644
0.719024
0.689459
0.661966
0.636627
0.613313
0.591913
0.572516
0.93802
0.908639
0.889581
0.856666
0.823181
0.788212
0.754597
0.722479
0.692494
0.664644
0.639002
0.615436
0.593838
0.574209
0.945121
0.914933
0.894976
0.861274
0.827143
0.791637
0.757574
0.72508
0.694779
0.666661
0.640789
0.617033
0.595286
0.575479
0.949876
0.919147
0.898587
0.864358
0.829795
0.793928
0.759566
0.72682
0.696307
0.66801
0.641984
0.618101
0.596253
0.576327
0.952265
0.921263
0.9004
0.865907
0.831127
0.795079
0.760566
0.727693
0.697073
0.668686
0.642583
0.618637
0.596741
0.576766
0.952276
0.921273
0.900408
0.865914
0.831133
0.795083
0.76057
0.727696
0.697076
0.668687
0.642584
0.618639
0.596743
0.576773
0.94991
0.919176
0.898612
0.86438
0.829813
0.793943
0.759577
0.726828
0.696313
0.668014
0.641986
0.618103
0.596255
0.576329
0.945177
0.914981
0.895017
0.861309
0.827172
0.79166
0.757592
0.725093
0.694788
0.666667
0.640792
0.617035
0.595285
0.575476
0.938096
0.908705
0.889638
0.856714
0.82322
0.788243
0.754621
0.722496
0.692505
0.664651
0.639004
0.615436
0.593835
0.574201
0.928701
0.900373
0.882495
0.850611
0.81797
0.783703
0.750673
0.719044
0.689471
0.661972
0.636628
0.613312
0.591908
0.572505
0.917032
0.890019
0.873616
0.843022
0.811442
0.778057
0.745761
0.71475
0.685696
0.658637
0.633671
0.610667
0.589509
0.570392
0.903141
0.877686
0.863034
0.833976
0.803657
0.771323
0.739903
0.709626
0.681191
0.654658
0.630142
0.607511
0.586645
0.567866
0.887089
0.863423
0.850791
0.823506
0.794645
0.763525
0.733116
0.70369
0.67597
0.650045
0.626049
0.60385
0.583325
0.564934
0.868947
0.847289
0.836933
0.811651
0.784437
0.75469
0.725425
0.69696
0.67005
0.644812
0.621405
0.599697
0.579555
0.5616
0.848797
0.82935
0.821514
0.798455
0.773069
0.744847
0.716853
0.689457
0.663448
0.638974
0.616223
0.595061
0.575348
0.557871
0.826727
0.809679
0.804593
0.783965
0.760583
0.734031
0.70743
0.681206
0.656184
0.632548
0.610516
0.589955
0.570712
0.553755
0.802835
0.788357
0.786235
0.768236
0.747021
0.722278
0.697186
0.672232
0.64828
0.625554
0.604301
0.584393
0.565662
0.549261
0.777228
0.765471
0.766511
0.751326
0.732433
0.709629
0.686155
0.662563
0.63976
0.61801
0.597595
0.57839
0.560209
0.544398
0.750019
0.741116
0.745496
0.733295
0.716869
0.696125
0.674372
0.652229
0.63065
0.609939
0.590416
0.571962
0.554368
0.539175
0.721331
0.71539
0.723271
0.714211
0.700385
0.681814
0.661876
0.641263
0.620976
0.601363
0.582783
0.565125
0.548152
0.533604
0.69129
0.6884
0.699922
0.694143
0.683038
0.666742
0.648707
0.629699
0.610767
0.592306
0.574717
0.557898
0.541579
0.527695
0.66003
0.660257
0.675538
0.673164
0.664887
0.65096
0.634906
0.617571
0.600053
0.582795
0.56624
0.550299
0.534664
0.52146
0.627692
0.631077
0.650212
0.65135
0.645998
0.63452
0.620519
0.604917
0.588865
0.572854
0.557374
0.542348
0.527425
0.514911
0.594418
0.60098
0.62404
0.62878
0.626434
0.617477
0.60559
0.591774
0.577236
0.562513
0.548142
0.534066
0.519878
0.508059
0.560356
0.570091
0.597124
0.605535
0.606263
0.599887
0.590165
0.578183
0.565198
0.551799
0.53857
0.525475
0.512044
0.500916
0.525659
0.538536
0.569566
0.581698
0.585553
0.581807
0.574294
0.564184
0.552787
0.540741
0.528681
0.516597
0.503941
0.493494
0.49048
0.506446
0.541469
0.557355
0.564376
0.563295
0.558025
0.549818
0.540038
0.529369
0.518501
0.507455
0.495592
0.485803
0.454973
0.473955
0.512941
0.532591
0.542801
0.544412
0.541408
0.535126
0.526985
0.517713
0.508054
0.498076
0.487022
0.477851
0.419294
0.441196
0.48409
0.507493
0.520902
0.525216
0.524493
0.520152
0.513665
0.505803
0.497366
0.488482
0.478262
0.469646
0.383599
0.408305
0.455023
0.482149
0.49875
0.505768
0.507331
0.504938
0.500114
0.493672
0.486461
0.4787
0.469351
0.461197
0.348044
0.375416
0.425851
0.456647
0.476418
0.486128
0.489972
0.489526
0.48637
0.481351
0.475361
0.468747
0.460342
0.452518
0.312782
0.342662
0.396682
0.431072
0.453978
0.466358
0.472466
0.47396
0.472467
0.468872
0.464091
0.458634
0.451311
0.443677
0.277966
0.310174
0.367623
0.405512
0.431501
0.446515
0.454865
0.45828
0.458441
0.456268
0.452679
0.448358
0.442329
0.434738
0.243744
0.278082
0.338784
0.380051
0.409058
0.42666
0.437218
0.44253
0.444328
0.443571
0.441156
0.437897
0.433401
0.42611
0.210256
0.24651
0.310269
0.354771
0.386719
0.406849
0.419574
0.426751
0.430161
0.430809
0.429565
0.427283
0.424191
0.418696
0.17764
0.215577
0.28218
0.329752
0.36455
0.387141
0.40198
0.410984
0.415975
0.418009
0.417941
0.416599
0.41469
0.411137
0.146048
0.18538
0.254617
0.305073
0.342619
0.36759
0.384483
0.395268
0.401803
0.405195
0.406303
0.405901
0.404971
0.402913
0.115645
0.156027
0.227669
0.280806
0.320989
0.348249
0.367129
0.379642
0.387679
0.392395
0.394663
0.395207
0.395146
0.394225
0.0864768
0.12773
0.2014
0.257024
0.299722
0.329171
0.349962
0.364143
0.373636
0.379634
0.383036
0.384524
0.385288
0.385346
0.0586376
0.100645
0.175813
0.233802
0.27888
0.310404
0.333023
0.348807
0.359703
0.366941
0.371441
0.373861
0.375423
0.376382
0.0322318
0.0752317
0.150677
0.211226
0.258517
0.291997
0.316354
0.333669
0.345911
0.35434
0.359902
0.363231
0.365562
0.367356
0.00732866
0.0510264
0.126608
0.189398
0.238684
0.273993
0.299992
0.318761
0.332288
0.341858
0.34844
0.352652
0.355717
0.358288
-0.0159996
0.0280392
0.103754
0.16838
0.219434
0.256437
0.283974
0.304114
0.318861
0.329517
0.337075
0.342141
0.345906
0.349202
-0.0376828
0.00644941
0.0820823
0.148194
0.200816
0.239369
0.268335
0.289757
0.305654
0.31734
0.325828
0.331714
0.336145
0.340121
-0.0576668
-0.0136179
0.0615793
0.128881
0.182875
0.222825
0.253106
0.275717
0.292691
0.305348
0.314716
0.321387
0.326453
0.331067
-0.0759146
-0.0320975
0.0422864
0.11048
0.165646
0.206838
0.238316
0.262021
0.279996
0.29356
0.303757
0.311176
0.316844
0.322056
-0.0924028
-0.0489462
0.0242559
0.0930385
0.149152
0.191447
0.223992
0.248689
0.267588
0.281995
0.292968
0.301095
0.307332
0.313103
-0.10712
-0.0641298
0.00753011
0.0765945
0.133372
0.176717
0.210157
0.235744
0.255485
0.27067
0.282364
0.291158
0.297928
0.304222
-0.120066
-0.0776241
-0.00785873
0.0611847
0.118422
0.162584
0.196831
0.223205
0.243706
0.2596
0.27196
0.281377
0.288645
0.295426
-0.131253
-0.0894174
-0.0218854
0.046833
0.104323
0.149082
0.184015
0.211092
0.232264
0.248798
0.261767
0.271764
0.27949
0.286726
-0.140706
-0.0995121
-0.0345319
0.0335555
0.0910722
0.136251
0.171723
0.199411
0.221174
0.238278
0.251797
0.26233
0.270472
0.278133
-0.148459
-0.107925
-0.0457878
0.021365
0.0786749
0.124109
0.159985
0.188162
0.21044
0.228052
0.24206
0.253085
0.261601
0.269654
-0.154558
-0.114686
-0.0556513
0.0102711
0.0671387
0.112658
0.148812
0.177366
0.200067
0.218119
0.232565
0.244036
0.252893
0.261287
-0.159059
-0.119843
-0.0641288
0.000277768
0.0564691
0.101901
0.138205
0.167034
0.19007
0.20849
0.2233
0.235189
0.244376
0.253019
-0.162026
-0.123455
-0.0712357
-0.00861731
0.0466668
0.0918388
0.128164
0.157167
0.180457
0.199175
0.214292
0.226527
0.236084
0.244813
-0.163534
-0.125599
-0.0769961
-0.0164227
0.0377275
0.082469
0.118689
0.147766
0.171227
0.190179
0.205552
0.218074
0.22795
0.236727
-0.163664
-0.126366
-0.0814436
-0.0231529
0.0296431
0.073787
0.109776
0.138829
0.162383
0.181503
0.197079
0.209838
0.219971
0.228876
-0.162508
-0.125859
-0.0846188
-0.0288286
0.022401
0.0657843
0.101421
0.130353
0.153921
0.173145
0.188873
0.201821
0.21217
0.221238
-0.160162
-0.124197
-0.0865699
-0.033477
0.0159853
0.0584499
0.093615
0.122333
0.14584
0.165105
0.180932
0.194027
0.204557
0.213761
-0.15673
-0.121508
-0.0873546
-0.037132
0.010376
0.0517699
0.0863481
0.114762
0.138135
0.157382
0.173257
0.186457
0.197131
0.206427
-0.152322
-0.117924
-0.0870413
-0.0398343
0.00554975
0.0457279
0.0796077
0.107631
0.130801
0.14997
0.165845
0.179107
0.189892
0.199237
-0.147051
-0.11358
-0.08571
-0.0416314
0.00147987
0.0403054
0.0733795
0.10093
0.12383
0.142867
0.158694
0.171977
0.182839
0.192198
-0.141037
-0.108609
-0.0834521
-0.0425767
-0.00186337
0.0354816
0.0676475
0.0946461
0.117213
0.136064
0.151801
0.165063
0.175974
0.185315
-0.1344
-0.103138
-0.0803709
-0.0427293
-0.00451268
0.0312339
0.0623943
0.088766
0.11094
0.129556
0.14516
0.158362
0.169294
0.178589
-0.12726
-0.0972858
-0.0765807
-0.042153
-0.00650358
0.0275382
0.0576014
0.083275
0.105
0.123334
0.138765
0.151871
0.162797
0.172021
-0.11974
-0.0911598
-0.0722052
-0.0409158
-0.00787439
0.0243689
0.0532494
0.0781579
0.0993803
0.117388
0.132611
0.145585
0.15648
0.165609
-0.111955
-0.0848554
-0.0673744
-0.0390893
-0.00866616
0.0216995
0.0493185
0.0733986
0.0940689
0.11171
0.12669
0.1395
0.150338
0.159353
-0.104017
-0.078456
-0.06222
-0.036748
-0.00892266
0.0195025
0.0457886
0.0689807
0.0890522
0.106287
0.120995
0.133609
0.144368
0.15325
-0.0960302
-0.0720339
-0.0568695
-0.0339699
-0.00869029
0.0177498
0.0426396
0.0648879
0.0843166
0.10111
0.115516
0.127907
0.138565
0.147298
-0.0880859
-0.065652
-0.0514399
-0.0308356
-0.00801798
0.0164127
0.0398517
0.0611039
0.0798485
0.0961659
0.110246
0.122388
0.132923
0.141493
-0.0802645
-0.0593651
-0.0460315
-0.0274294
-0.00695693
0.0154622
0.0374055
0.0576132
0.0756343
0.0914442
0.105174
0.117043
0.127437
0.135834
-0.0726321
-0.0532218
-0.0407246
-0.0238382
-0.00556035
0.0148687
0.0352822
0.0544007
0.0716611
0.0869331
0.100292
0.111867
0.122102
0.130314
-0.0652417
-0.0472653
-0.0355776
-0.0201495
-0.00388319
0.0146017
0.0334634
0.0514525
0.0679165
0.0826215
0.0955885
0.106852
0.11691
-0.0581337
-0.0415333
-0.030629
-0.0164479
-0.00198209
0.0146297
0.0319314
0.0487558
0.0643893
0.0784988
0.0910554
-0.0513372
-0.0360572
-0.0259018
-0.0128094
8.45495e-05
0.0149194
0.0306684
0.0462992
0.0610693
0.074555
-0.0448725
-0.0308611
-0.0214086
-0.00929609
0.00225672
0.0154354
0.0296569
0.0440723
0.0579481
0.0707816
-0.038752
-0.0259606
-0.0171568
-0.00595168
0.00447383
0.0161402
0.0288787
0.0420662
0.0550186
-0.0329824
-0.0213633
-0.0131518
-0.00280118
0.00667737
0.0169935
0.0283144
0.0402726
-0.0275654
-0.017069
-0.00939818
0.000146067
0.00881526
0.0179529
0.0279426
-0.0224986
-0.0130715
-0.00589922
0.00289063
0.0108466
0.018974
0.0277388
-0.0177765
-0.00936018
-0.00265516
0.00543703
0.0127451
0.0200131
-0.0133904
-0.00592194
0.000337828
0.00778975
0.0144985
-0.00932912
-0.00274203
0.00308787
0.00995217
0.0161049
-0.00557926
0.000195077
0.00560675
0.0119276
-0.0021252
0.00290528
0.00790886
0.0137213
0.00105034
0.00540484
0.0100103
0.0039658
0.00771059
0.011928
0.00664082
0.00983971
0.0136795
0.00909999
0.0118061
0.0113737
0.0136191
0.0134688
0.0153067
0.0154075
0.0172128
0.0189055
0.0205044
0.0220262
0.197066
0.190314
0.183689
0.17719
0.170818
0.164575
0.158458
0.152467
0.146601
0.140859
0.135237
0.199023
0.192411
0.185915
0.179535
0.173272
0.167126
0.161096
0.155183
0.149386
0.143703
0.138133
0.200909
0.19447
0.188138
0.181914
0.1758
0.169794
0.163898
0.158111
0.152432
0.14686
0.141396
0.202752
0.196468
0.190284
0.184199
0.178214
0.17233
0.166547
0.160864
0.155282
0.1498
0.144418
0.204534
0.198399
0.192354
0.186399
0.180535
0.174764
0.169084
0.163496
0.158
0.152596
0.147282
0.206249
0.200262
0.194356
0.188532
0.182791
0.177134
0.17156
0.166071
0.160665
0.155343
0.150104
0.2079
0.202059
0.196293
0.190601
0.184985
0.179445
0.173981
0.168594
0.163284
0.158051
0.152895
0.209488
0.203793
0.198165
0.192605
0.187113
0.181691
0.176339
0.171057
0.165846
0.160705
0.155636
0.211014
0.205462
0.199971
0.194541
0.189174
0.18387
0.17863
0.173454
0.168343
0.163297
0.158317
0.212477
0.207066
0.201711
0.196411
0.191167
0.185981
0.180853
0.175784
0.170775
0.165825
0.160936
0.213877
0.208606
0.203384
0.198213
0.193092
0.188024
0.183008
0.178047
0.17314
0.168288
0.163492
0.215216
0.210082
0.204992
0.199947
0.194948
0.189997
0.185094
0.180241
0.175437
0.170684
0.165982
0.216493
0.211493
0.206533
0.201614
0.196736
0.191901
0.18711
0.182364
0.177664
0.173011
0.168405
0.21771
0.212841
0.208009
0.203213
0.198454
0.193735
0.189055
0.184417
0.17982
0.175267
0.170757
0.218866
0.214127
0.209419
0.204744
0.200103
0.195498
0.190928
0.186397
0.181904
0.17745
0.173037
0.219963
0.21535
0.210764
0.206208
0.201683
0.19719
0.19273
0.188304
0.183914
0.17956
0.175243
0.221002
0.216511
0.212045
0.207606
0.203194
0.198812
0.194459
0.190138
0.185849
0.181594
0.177374
0.221982
0.217612
0.213263
0.208937
0.204637
0.200362
0.196116
0.191898
0.187709
0.183553
0.179428
0.222905
0.218651
0.214416
0.210202
0.20601
0.201843
0.1977
0.193583
0.189494
0.185434
0.181404
0.223772
0.219631
0.215507
0.211402
0.207317
0.203253
0.199212
0.195195
0.191203
0.187238
0.183301
0.224584
0.220553
0.216537
0.212537
0.208556
0.204593
0.200652
0.196732
0.192836
0.188964
0.185119
0.225342
0.221418
0.217506
0.213609
0.209728
0.205865
0.20202
0.198196
0.194393
0.190613
0.186857
0.226048
0.222227
0.218417
0.214619
0.210836
0.207068
0.203318
0.199586
0.195874
0.192183
0.188515
0.226704
0.222982
0.219269
0.215568
0.211879
0.208205
0.204545
0.200903
0.197279
0.193675
0.190092
0.22731
0.223684
0.220066
0.216457
0.21286
0.209275
0.205704
0.202149
0.19861
0.19509
0.19159
0.227869
0.224335
0.220807
0.217288
0.213778
0.21028
0.206794
0.203323
0.199867
0.196429
0.193009
0.228382
0.224936
0.221495
0.218062
0.214637
0.211221
0.207818
0.204427
0.201051
0.197691
0.194348
0.228851
0.225489
0.222132
0.21878
0.215436
0.212101
0.208776
0.205463
0.202163
0.198878
0.195609
0.229277
0.225996
0.222718
0.219445
0.216178
0.212919
0.209669
0.20643
0.203203
0.19999
0.196792
0.229663
0.226458
0.223256
0.220057
0.216864
0.213678
0.210499
0.207331
0.204174
0.201029
0.197899
0.23001
0.226878
0.223747
0.220619
0.217496
0.214378
0.211268
0.208167
0.205075
0.201996
0.198929
0.230321
0.227257
0.224193
0.221132
0.218074
0.215022
0.211976
0.208938
0.205909
0.202891
0.199885
0.230596
0.227596
0.224596
0.221598
0.218602
0.215611
0.212625
0.209646
0.206676
0.203716
0.200766
0.230839
0.227898
0.224958
0.222018
0.21908
0.216146
0.213216
0.210293
0.207377
0.204471
0.201574
0.23105
0.228165
0.225279
0.222393
0.219509
0.216628
0.21375
0.210879
0.208014
0.205157
0.202309
0.231232
0.228397
0.225562
0.222726
0.219891
0.217058
0.214229
0.211404
0.208586
0.205774
0.202971
0.231384
0.228596
0.225807
0.223016
0.220226
0.217437
0.214652
0.21187
0.209094
0.206323
0.203561
0.231509
0.228762
0.226014
0.223264
0.220514
0.217765
0.215018
0.212275
0.209536
0.206803
0.204076
0.231609
0.228899
0.226187
0.223473
0.220758
0.218044
0.215331
0.212622
0.209916
0.207214
0.204518
0.231677
0.228998
0.226317
0.223633
0.220949
0.218265
0.215582
0.2129
0.210223
0.207549
0.204879
0.231733
0.22908
0.226424
0.223765
0.221104
0.218444
0.215783
0.213124
0.210468
0.207814
0.205164
0.202519
0.231732
0.229099
0.226465
0.223828
0.221191
0.218553
0.215915
0.213279
0.210643
0.20801
0.20538
0.202754
0.420194
0.412163
0.404416
0.396644
0.388412
0.380014
0.371594
0.363133
0.354637
0.346133
0.337639
0.329169
0.320735
0.312349
0.30402
0.295757
0.28757
0.279465
0.271451
0.26354
0.255742
0.248037
0.24019
0.232635
0.225287
0.21806
0.210942
0.203942
0.416799
0.408494
0.400276
0.392605
0.384565
0.376352
0.368165
0.359966
0.351741
0.343517
0.335308
0.327125
0.318978
0.310876
0.302827
0.294838
0.286917
0.279069
0.2713
0.263615
0.25602
0.248536
0.241043
0.233736
0.226583
0.219537
0.212589
0.20575
0.412604
0.404375
0.395861
0.388326
0.380575
0.372586
0.364634
0.356698
0.348743
0.340789
0.332856
0.324951
0.317081
0.309255
0.30148
0.293762
0.286108
0.278521
0.271007
0.263569
0.256211
0.248936
0.241783
0.234691
0.227721
0.220864
0.214109
0.207456
0.408041
0.400121
0.391522
0.384117
0.376679
0.368945
0.361227
0.353555
0.345874
0.338193
0.330534
0.322905
0.315311
0.307757
0.300251
0.292798
0.285403
0.278071
0.270805
0.263607
0.256479
0.249427
0.242542
0.235653
0.228862
0.222188
0.215614
0.209135
0.403351
0.395806
0.387253
0.379963
0.372824
0.365366
0.357883
0.350468
0.343058
0.335647
0.328258
0.320899
0.313572
0.306284
0.299041
0.291845
0.284703
0.277618
0.270593
0.26363
0.256736
0.249922
0.243242
0.23656
0.22996
0.223468
0.217071
0.210759
0.39864
0.391462
0.383047
0.37588
0.36902
0.361848
0.354606
0.34744
0.340297
0.333151
0.326024
0.318927
0.311862
0.304832
0.297842
0.290896
0.283999
0.277153
0.270363
0.26363
0.256961
0.250367
0.243886
0.237408
0.231
0.224689
0.218465
0.212318
0.393948
0.387113
0.378902
0.371878
0.365276
0.358394
0.351399
0.344477
0.337592
0.330708
0.323837
0.316995
0.310182
0.303402
0.296659
0.289955
0.283296
0.276683
0.27012
0.26361
0.25716
0.250777
0.244488
0.238206
0.231987
0.225853
0.219798
0.213814
0.389304
0.382786
0.374825
0.367964
0.361604
0.355005
0.348263
0.341579
0.334945
0.328316
0.321696
0.315101
0.308534
0.301997
0.295492
0.289023
0.282594
0.276207
0.269865
0.263571
0.257332
0.251152
0.245051
0.238958
0.232922
0.226963
0.221074
0.215249
0.384727
0.378505
0.370819
0.364141
0.358009
0.351684
0.345196
0.338748
0.332357
0.325976
0.319601
0.313245
0.306916
0.300614
0.294341
0.288099
0.281893
0.275724
0.269596
0.263512
0.257475
0.251492
0.245574
0.239665
0.233807
0.228018
0.222293
0.216625
0.380233
0.374289
0.366892
0.36041
0.354498
0.348436
0.342199
0.335985
0.329829
0.323688
0.31755
0.311428
0.305329
0.299255
0.293205
0.287183
0.281193
0.275235
0.269314
0.263431
0.257591
0.251797
0.246059
0.240327
0.234642
0.22902
0.223454
0.21794
0.375832
0.37015
0.363049
0.356773
0.351073
0.345262
0.339274
0.333289
0.327361
0.321452
0.315545
0.309649
0.303773
0.297918
0.292084
0.286275
0.280492
0.274739
0.269017
0.263329
0.257679
0.252069
0.246505
0.240945
0.235429
0.229969
0.22456
0.219196
0.371533
0.366099
0.359294
0.35323
0.347736
0.342165
0.336419
0.33066
0.324953
0.319268
0.313584
0.307907
0.302246
0.296603
0.290978
0.285374
0.279793
0.274236
0.268707
0.263207
0.25774
0.252307
0.246914
0.241519
0.236167
0.230866
0.225609
0.220392
0.367341
0.362141
0.355631
0.349784
0.344489
0.339148
0.333637
0.328098
0.322606
0.317137
0.311668
0.306203
0.300749
0.29531
0.289887
0.284481
0.279093
0.273726
0.268383
0.263064
0.257774
0.252514
0.247286
0.242052
0.236857
0.231711
0.226603
0.22153
0.36326
0.358283
0.352064
0.346433
0.341333
0.336211
0.330927
0.325604
0.320319
0.315057
0.309796
0.304535
0.299282
0.29404
0.288811
0.283594
0.278393
0.273209
0.268045
0.262902
0.257782
0.252688
0.24762
0.242541
0.237501
0.232506
0.227544
0.222611
0.359294
0.35453
0.348594
0.34318
0.338269
0.333355
0.32829
0.323176
0.318092
0.313031
0.307969
0.302905
0.297844
0.292792
0.287749
0.282715
0.277694
0.272686
0.267694
0.26272
0.257766
0.252832
0.247918
0.242987
0.238098
0.233251
0.228431
0.223635
0.355446
0.350884
0.345225
0.340025
0.335296
0.330582
0.325726
0.320816
0.315925
0.311056
0.306186
0.30131
0.296435
0.291565
0.286701
0.281844
0.276994
0.272155
0.267328
0.262516
0.257722
0.252951
0.248203
0.243408
0.238659
0.233951
0.229266
0.224603
0.351717
0.347347
0.341956
0.336967
0.332416
0.327891
0.323236
0.318521
0.313818
0.309133
0.304447
0.299753
0.295056
0.29036
0.285668
0.280979
0.276296
0.271619
0.26695
0.26229
0.257641
0.253003
0.248377
0.243787
0.239192
0.234611
0.230052
0.225516
0.348109
0.343923
0.33879
0.334006
0.329627
0.325283
0.320819
0.316293
0.311771
0.307262
0.302751
0.298232
0.293706
0.289178
0.28465
0.280124
0.275599
0.271077
0.26656
0.262049
0.257545
0.253049
0.248569
0.244134
0.239677
0.235221
0.230786
0.226374
0.344623
0.340611
0.335726
0.331144
0.32693
0.322757
0.318477
0.314131
0.309782
0.305443
0.3011
0.296747
0.292385
0.288018
0.283648
0.279277
0.274904
0.270532
0.266162
0.261796
0.257434
0.253081
0.248742
0.244432
0.240107
0.235779
0.231468
0.227177
0.34126
0.337414
0.332766
0.328378
0.324325
0.320315
0.316208
0.312035
0.307852
0.303675
0.299493
0.295299
0.291093
0.28688
0.282662
0.278439
0.274213
0.269985
0.265757
0.261529
0.257305
0.253086
0.248878
0.244691
0.240492
0.23629
0.232101
0.227928
0.33802
0.334331
0.32991
0.32571
0.32181
0.317955
0.314013
0.310004
0.305981
0.301959
0.297931
0.293888
0.289832
0.285766
0.281693
0.277613
0.273527
0.269437
0.265344
0.26125
0.257156
0.253067
0.248984
0.244917
0.240838
0.236758
0.232686
0.228628
0.334903
0.331364
0.327158
0.323138
0.319386
0.315678
0.311891
0.30804
0.304169
0.300295
0.296412
0.292515
0.288602
0.284676
0.280741
0.276797
0.272845