/*--------------------------------*- C++ -*----------------------------------*\
  =========                 |
  \\      /  F ield         | OpenFOAM: The Open Source CFD Toolbox
   \\    /   O peration     | Website:  https://openfoam.org
    \\  /    A nd           | Version:  7
     \\/     M anipulation  |
\*---------------------------------------------------------------------------*/
FoamFile
{
    version     2.0;
    format      ascii;
    class       surfaceScalarField;
    location    "25";
    object      phi;
}
// * * * * * * * * * * * * * * * * * * * * * * * * * * * * * * * * * * * * * //

dimensions      [0 3 -1 0 0 0 0];

internalField   nonuniform List<scalar> 
16357
(
0.000163038
0.000164681
0.000166191
0.000167566
-1.20264e-06
0.000168768
0.000329779
-9.615e-07
0.00016973
0.000319403
-6.11696e-07
0.000170342
0.000306311
-7.59848e-08
0.000170418
0.0002901
5.29309e-07
0.000169888
2.04795e-05
0.000270149
0.000184415
1.34244e-06
0.000168546
2.56163e-05
0.000245875
0.000119179
2.38592e-06
0.00016616
3.16344e-05
0.000216627
0.000107833
4.29803e-05
-0.00036671
3.67806e-06
0.000162482
3.86077e-05
0.000181697
0.000127045
-4.54568e-05
-0.000534811
5.23709e-06
0.000157245
4.65944e-05
0.00014034
0.000148556
-0.000147418
-0.000725051
7.07802e-06
0.000150167
5.56358e-05
9.17823e-05
0.000172375
-0.000264157
0.000385658
-0.000938334
-0.00191008
9.21215e-06
0.000140955
6.57548e-05
3.52396e-05
0.000198437
-0.00039684
0.000435082
-0.00117498
-0.00225511
1.16471e-05
0.000129307
7.6956e-05
-3.00693e-05
0.000226595
-0.000546479
0.000486175
-0.00143456
0.00084922
-0.00261816
-0.0039267
1.43872e-05
0.00011492
8.92239e-05
-0.000104906
0.000256599
-0.000713854
0.000537832
-0.00171579
0.000913631
-0.00299396
0.00132622
-0.00433929
-0.00556201
1.74333e-05
9.7487e-05
0.000102522
-0.000189994
0.000288087
-0.00089942
0.000588796
-0.0020165
0.000971566
-0.00337673
0.00137172
-0.00473944
-0.005927
2.07833e-05
7.67037e-05
0.000116787
-0.000285998
0.000320579
-0.00110321
0.000637747
-0.00233367
0.00102161
-0.0037606
0.00140443
-0.00512225
0.001741
-0.00626357
-0.00716067
2.44325e-05
5.22712e-05
0.000131928
-0.000393494
0.000353484
-0.00132477
0.0006834
-0.00266358
0.0010628
-0.00413999
0.00142461
-0.00548407
0.00173224
-0.0065712
0.00197993
-0.00740835
-0.00806368
2.83729e-05
2.38983e-05
0.000147815
-0.000512935
0.000386131
-0.00156308
0.000724603
-0.00300205
0.00109458
-0.00450997
0.0014329
-0.00582239
0.00171196
-0.00685026
0.0019329
-0.00762929
0.00211077
-0.00824154
-0.00876652
3.25939e-05
-8.6956e-06
0.000164274
-0.000644615
0.000417795
-0.00181661
0.000760408
-0.00334467
0.00111682
-0.00486638
0.00143019
-0.00613576
0.00168168
-0.00710174
0.00187816
-0.00782578
0.00203669
-0.00840007
0.00217385
-0.00890368
-0.00938854
3.70811e-05
-4.57767e-05
0.000181086
-0.00078862
0.000447749
-0.00208327
0.000790121
-0.00368704
0.00112969
-0.00520595
0.0014175
-0.00642358
0.00164284
-0.00732708
0.00181714
-0.00800007
0.00195849
-0.00854143
0.00208251
-0.0090277
0.00219979
-0.00950582
-0.0100023
4.18164e-05
-8.75932e-05
0.00019799
-0.000944793
0.0004753
-0.00236058
0.000813309
-0.00402505
0.00113362
-0.00552627
0.00139594
-0.00668589
0.00159681
-0.00752795
0.00175107
-0.00815434
0.00187711
-0.00866747
0.00198924
-0.00913983
0.00209644
-0.00961302
0.00220281
-0.0101086
-0.0106308
4.67755e-05
-0.000134369
0.000214691
-0.00111271
0.000499835
-0.00264572
0.000829791
-0.004355
0.00112922
-0.00582569
0.00136661
-0.00692329
0.00154478
-0.00770612
0.001681
-0.00829056
0.0017933
-0.00877976
0.00189451
-0.00924105
0.00199212
-0.00971063
0.00208929
-0.0102058
0.00218833
-0.0107299
-0.0112988
0.00228738
5.19262e-05
-0.000186295
0.000230877
-0.00129166
0.000520846
-0.00293569
0.0008396
-0.00467376
0.00111717
-0.00610326
0.00133056
-0.00713668
0.00148784
-0.0078634
0.0016078
-0.00841052
0.00170765
-0.00887961
0.00179869
-0.00933209
0.00188704
-0.00979898
0.00197513
-0.0102939
0.00206473
-0.0108195
-0.0113881
0.00215406
5.72253e-05
-0.00024352
0.000246232
-0.00148067
0.000537956
-0.00322742
0.00084294
-0.00497874
0.00109823
-0.00635856
0.00128879
-0.00732724
0.00142692
-0.00800153
0.00153218
-0.00851577
0.00162062
-0.00896806
0.00170205
-0.00941351
0.00178139
-0.00987832
0.00186046
-0.0103729
0.00194063
-0.0108996
-0.0114677
0.00202022
6.26172e-05
-0.000306137
0.000260452
-0.0016785
0.000550922
-0.00351789
0.000840145
-0.00526796
0.00107318
-0.0065916
0.00124221
-0.00749626
0.00136282
-0.00812215
0.00145471
-0.00860766
0.0015326
-0.00904594
0.00160482
-0.00948573
0.00167531
-0.00994881
0.0017454
-0.010443
0.00181615
-0.0109704
-0.0115376
0.001886
6.80331e-05
-0.00037417
0.000273255
-0.00188372
0.000559635
-0.00380427
0.000831634
-0.00553996
0.00104278
-0.00680274
0.00119162
-0.00764511
0.00129622
-0.00822674
0.00137588
-0.00868732
0.00144387
-0.00911393
0.00150719
-0.00954905
0.00156893
-0.0100105
0.00163007
-0.0105042
0.00169141
-0.0110317
-0.0115977
0.00175149
7.33922e-05
-0.000447563
0.000284393
-0.00209472
0.0005641
-0.00408397
0.000817881
-0.00579374
0.00100773
-0.00699259
0.00113775
-0.00777513
0.00122768
-0.00831667
0.00129606
-0.00875571
0.00135467
-0.00917254
0.00140931
-0.00960369
0.00146237
-0.0100636
0.00151457
-0.0105564
0.0015665
-0.0110837
-0.011648
0.00161682
7.86057e-05
-0.000526168
0.000293661
-0.00230978
0.000564425
-0.00435474
0.000799386
-0.0060287
0.000968719
-0.00716192
0.00108124
-0.00788765
0.00115768
-0.00839312
0.00121557
-0.00881359
0.00126518
-0.00922216
0.00131129
-0.0096498
0.00135572
-0.010108
0.00139899
-0.0105997
0.00144153
-0.0111262
-0.0116885
0.00148209
8.35808e-05
-0.000609749
0.0003009
-0.0025271
0.000560789
-0.00461463
0.000776658
-0.00624457
0.000926365
-0.00731163
0.00102262
-0.00798391
0.00108663
-0.00845712
0.00113464
-0.0088616
0.00117557
-0.00926309
0.00121326
-0.00968749
0.00124909
-0.0101439
0.00128344
-0.010634
0.0013166
-0.0111594
-0.0117194
0.00134742
8.82255e-05
-0.000697975
0.000305999
-0.00274487
0.000553428
-0.00486206
0.000750195
-0.00644134
0.000881227
-0.00744266
0.00096239
-0.00806507
0.00101485
-0.00850958
0.0010535
-0.00890026
0.00108597
-0.00929555
0.00111531
-0.00971683
0.00114257
-0.0101711
0.00116802
-0.0106595
0.00119182
-0.0111832
-0.0117405
0.00121293
9.2452e-05
-0.000790427
0.000308901
-0.00296132
0.000542617
-0.00509577
0.000720475
-0.0066192
0.00083381
-0.00755599
0.000900936
-0.00813219
0.000942608
-0.00855125
0.000972311
-0.00892996
0.000996476
-0.00931972
0.00101754
-0.0097379
0.00103625
-0.0101898
0.00105281
-0.010676
0.00106728
-0.0111976
-0.0117519
0.00107871
9.61804e-05
-0.000886607
0.000309596
-0.00317474
0.000528648
-0.00531482
0.000687952
-0.0067785
0.000784561
-0.0076526
0.000838607
-0.00818624
0.000870134
-0.00858278
0.000891207
-0.00895103
0.000907203
-0.00933571
0.000920024
-0.00975072
0.000930212
-0.0102
0.000937898
-0.0106837
0.00094308
-0.0112028
-0.0117537
0.000944889
9.934e-05
-0.000985947
0.000308116
-0.00338351
0.000511828
-0.00551854
0.000653046
-0.00691972
0.000733871
-0.00773343
0.000775694
-0.00822806
0.000797612
-0.0086047
0.000810308
-0.00896373
0.00081823
-0.00934363
0.000822845
-0.00975533
0.000824534
-0.0102017
0.000823377
-0.0106825
0.000819306
-0.0111987
-0.011746
0.000811561
0.000101871
-0.00108782
0.000304531
-0.00358617
0.00049246
-0.00570646
0.000616145
-0.00704341
0.000682091
-0.00779937
0.000712446
-0.00825842
0.000725202
-0.00861746
0.000729722
-0.00896825
0.000729646
-0.00934356
0.00072609
-0.00975178
0.000719309
-0.0101949
0.000709341
-0.0106726
0.000696071
-0.0111855
-0.0117287
0.000678833
0.000103724
-0.00119154
0.000298941
-0.00378139
0.000470842
-0.00587836
0.000577603
-0.00715017
0.000629517
-0.00785129
0.00064907
-0.00827797
0.000653034
-0.00862142
0.000649536
-0.00896475
0.000641523
-0.00933554
0.000629829
-0.00974008
0.000614608
-0.0101797
0.000595864
-0.0106538
0.000573467
-0.0111631
-0.011702
0.000546787
0.000104863
-0.0012964
0.000291468
-0.003968
0.00044726
-0.00603416
0.000537739
-0.00724065
0.000576411
-0.00788996
0.000585743
-0.0082873
0.000581218
-0.00861689
0.000569828
-0.00895336
0.000553932
-0.00931965
0.000534135
-0.00972029
0.000510508
-0.0101561
0.000483024
-0.0106263
0.000451575
-0.0111316
-0.011666
0.000415525
0.000105264
-0.00140167
0.000282249
-0.00414498
0.000421985
-0.00617389
0.00049684
-0.0073155
0.000522999
-0.00791612
0.000522612
-0.00828692
0.000509851
-0.00860413
0.000490672
-0.00893418
0.00046694
-0.00929591
0.000439079
-0.00969242
0.000407088
-0.0101241
0.000370904
-0.0105902
0.000330441
-0.0110912
-0.0116207
0.000285128
0.000104917
-0.00150658
0.000271432
-0.00431149
0.000395273
-0.00629773
0.000455161
-0.00737539
0.000469475
-0.00793043
0.000459804
-0.00827725
0.000439014
-0.00858334
0.000412134
-0.0089073
0.000380612
-0.00926439
0.000344728
-0.00965654
0.000304423
-0.0100838
0.000259619
-0.0105453
0.000210139
-0.0110417
-0.011566
0.000155498
0.000103823
-0.00161041
0.000259178
-0.00446685
0.000367361
-0.00640592
0.000412931
-0.00742096
0.000416006
-0.00793351
0.000397427
-0.00825867
0.000368781
-0.0085547
0.000334273
-0.00887279
0.000295009
-0.00922513
0.000251148
-0.00961268
0.000202581
-0.0100352
0.000149269
-0.010492
9.09653e-05
-0.0109834
-0.011501
2.58868e-05
0.000101997
-0.0017124
0.000245654
-0.00461051
0.00033847
-0.00649873
0.000370351
-0.00745284
0.000362736
-0.00792589
0.000335572
-0.0082315
0.000299216
-0.00851834
0.000257149
-0.00883073
0.000210191
-0.00917817
0.000158399
-0.00956089
0.000101631
-0.00997845
3.9668e-05
-0.0104301
-2.67282e-05
-0.010917
-0.0114269
-0.000100766
9.94645e-05
-0.00181187
0.000231013
-0.00474206
0.000308802
-0.00657652
0.000327597
-0.00747163
0.000309789
-0.00790809
0.000274319
-0.00819603
0.000230376
-0.0084744
0.000180814
-0.00878117
0.000126214
-0.00912357
6.65294e-05
-0.00950121
1.45523e-06
-0.00991338
-6.85795e-05
-0.01036
-0.000144362
-0.0108412
-0.0113449
-0.000226404
9.62599e-05
-0.00190813
0.000215401
-0.0048612
0.000278539
-0.00663966
0.000284825
-0.00747792
0.00025727
-0.00788053
0.000213735
-0.0081525
0.000162315
-0.00842298
0.000105317
-0.00872417
4.30931e-05
-0.00906135
-2.43854e-05
-0.00943373
-9.72251e-05
-0.00984054
-0.00017568
-0.0102816
-0.000260283
-0.0107566
-0.0112542
-0.000350948
9.24256e-05
-0.00200055
0.000198963
-0.00496773
0.00024785
-0.00668855
0.000242174
-0.00747225
0.000205269
-0.00784363
0.000153879
-0.00810111
9.50756e-05
-0.00836417
3.0655e-05
-0.00865975
-3.90243e-05
-0.00899167
-0.000114148
-0.0093586
-0.000195015
-0.00975967
-0.000281726
-0.0101949
-0.000374838
-0.0106635
-0.0111549
-0.00047418
8.80099e-05
-0.00208856
0.000181833
-0.00506156
0.000216884
-0.0067236
0.000199763
-0.00745512
0.000153864
-0.00779773
9.48035e-05
-0.00804205
2.8643e-05
-0.00829801
-4.29699e-05
-0.00858813
-0.000120059
-0.00891458
-0.000202883
-0.00927578
-0.000291648
-0.00967091
-0.000386534
-0.0101
-0.00048802
-0.010562
-0.0110469
-0.000595973
8.30652e-05
-0.00217163
0.000164139
-0.00514263
0.000185777
-0.00674524
0.000157692
-0.00742704
0.000103122
-0.00774316
3.65267e-05
-0.00797545
-3.67586e-05
-0.00822473
-0.000115579
-0.00850931
-0.00020008
-0.00883008
-0.000290485
-0.00918537
-0.000387054
-0.00957434
-0.000490015
-0.00999703
-0.000599786
-0.0104522
-0.0109305
-0.000716235
7.76467e-05
-0.00224928
0.000146001
-0.00521099
0.000154651
-0.00675389
0.000116044
-0.00738843
5.30984e-05
-0.00768021
-2.08798e-05
-0.00790147
-0.000101154
-0.00814445
-0.000187185
-0.00842328
-0.000278997
-0.00873826
-0.000376892
-0.00908748
-0.000481169
-0.00947006
-0.0005921
-0.0098861
-0.000710069
-0.0103343
-0.0108057
-0.000834888
7.18111e-05
-0.00232109
0.000127531
-0.00526671
0.000123618
-0.00674997
7.48962e-05
-0.00733971
3.46216e-06
-0.00760878
-7.72465e-05
-0.00782077
-0.00016459
-0.00805711
-0.000257719
-0.00833015
-0.000356758
-0.00863923
-0.00046205
-0.00898219
-0.000573932
-0.00935818
-0.000692725
-0.0097673
-0.0008188
-0.0102082
-0.0106726
-0.000951862
6.5615e-05
-0.0023867
0.000108835
-0.00530993
9.2772e-05
-0.00673391
3.43699e-05
-0.00728131
-4.45198e-05
-0.00752989
-0.000132704
-0.00773258
-0.000227001
-0.00796281
-0.000327138
-0.00823002
-0.000433314
-0.00853305
-0.000545905
-0.0088696
-0.000665285
-0.0092388
-0.000791826
-0.00964076
-0.000925907
-0.0100741
-0.0105314
-0.00106709
5.91137e-05
-0.00244582
9.00146e-05
-0.00534083
6.2195e-05
-0.00670609
-5.52456e-06
-0.00721359
-9.20019e-05
-0.00744341
-0.000187184
-0.0076374
-0.000288345
-0.00786165
-0.0003954
-0.00812296
-0.000508619
-0.00841983
-0.000628407
-0.00874981
-0.000755171
-0.00911204
-0.000889343
-0.00950659
-0.00103133
-0.00993212
-0.0103822
-0.0011805
5.23598e-05
-0.00249818
7.11698e-05
-0.00535964
3.19639e-05
-0.00666689
-4.46976e-05
-0.00713693
-0.000138626
-0.00734948
-0.000240652
-0.00753537
-0.000348582
-0.00775372
-0.000462465
-0.00800908
-0.000582629
-0.00829967
-0.000709507
-0.00862293
-0.000843536
-0.00897801
-0.000985214
-0.00936491
-0.00113499
-0.00978235
-0.0102252
-0.00129203
4.54073e-05
-0.00254358
5.23995e-05
-0.00536663
2.17241e-06
-0.00661666
-8.31466e-05
-0.00705161
-0.000184325
-0.0072483
-0.000293079
-0.00742662
-0.000407681
-0.00763912
-0.000528295
-0.00788846
-0.000655302
-0.00817266
-0.000789159
-0.00848907
-0.000930329
-0.00883684
-0.00107938
-0.00921586
-0.00123683
-0.0096249
-0.0100604
-0.00140162
3.83205e-05
-0.0025819
3.38176e-05
-0.00536213
-2.71741e-05
-0.00655567
-0.000120827
-0.00695795
-0.000229066
-0.00714006
-0.000344437
-0.00731125
-0.000465609
-0.00751795
-0.000592855
-0.00776122
-0.000726597
-0.00803892
-0.000867317
-0.00834835
-0.0010155
-0.00868865
-0.00117179
-0.00905957
-0.00133679
-0.0094599
-0.00988798
-0.00150921
3.11669e-05
-0.00261307
1.56831e-05
-0.00534664
-5.58864e-05
-0.0064841
-0.000157717
-0.00685612
-0.00027283
-0.00702495
-0.000394699
-0.00718938
-0.000522336
-0.00739031
-0.000656107
-0.00762745
-0.000796475
-0.00789855
-0.000943938
-0.00820089
-0.001099
-0.00853359
-0.00126238
-0.00889619
-0.00143481
-0.00928748
-0.00970807
-0.00161472
2.39561e-05
-0.00263703
-9.74959e-07
-0.00532171
-8.39884e-05
-0.00640108
-0.000193809
-0.0067463
-0.000315599
-0.00690316
-0.000443839
-0.00706114
-0.000577833
-0.00725632
-0.000718019
-0.00748726
-0.000864896
-0.00775167
-0.00101898
-0.00804681
-0.00118079
-0.00837178
-0.00135112
-0.00872586
-0.00153083
-0.00910777
-0.00952079
-0.0017181
1.65825e-05
-0.00265361
-2.13424e-05
-0.00528379
-0.0001117
-0.00631073
-0.000229033
-0.00662897
-0.000357346
-0.00677485
-0.000491835
-0.00692665
-0.000632071
-0.00711608
-0.000778556
-0.00734078
-0.000931824
-0.0075984
-0.00109241
-0.00788622
-0.00126083
-0.00820336
-0.00143797
-0.00854872
-0.00162482
-0.00892091
-0.00932642
-0.00181919
9.21608e-06
-0.00266283
-3.97579e-05
-0.00523481
-0.000138813
-0.00621167
-0.000263366
-0.00650442
-0.000398048
-0.00664017
-0.000538662
-0.00678604
-0.000685022
-0.00696972
-0.000837686
-0.00718811
-0.000997222
-0.00743887
-0.00116417
-0.00771927
-0.00133907
-0.00802845
-0.00152288
-0.00836491
-0.0017167
-0.00872709
-0.00912524
-0.00191789
2.06137e-06
-0.00266489
-5.75623e-05
-0.00517519
-0.000165268
-0.00610396
-0.000296794
-0.00637289
-0.000437683
-0.00649928
-0.000584297
-0.00663942
-0.000736658
-0.00681736
-0.000895378
-0.00702939
-0.00106105
-0.00727319
-0.00123424
-0.00754609
-0.00141549
-0.0078472
-0.00160583
-0.00817457
-0.00180641
-0.00852651
-0.00891719
-0.00201445
-5.47571e-06
-0.00265941
-7.49051e-05
-0.00510576
-0.000191023
-0.00598785
-0.000329297
-0.00623462
-0.000476234
-0.00635234
-0.000628719
-0.00648694
-0.000786954
-0.00665913
-0.000951599
-0.00686475
-0.00112328
-0.00710151
-0.00130257
-0.0073668
-0.00149006
-0.00765971
-0.00168684
-0.00797779
-0.00189393
-0.00831943
-0.00870249
-0.00210863
-1.28749e-05
-0.00264654
-9.18119e-05
-0.00502682
-0.000216051
-0.00586361
-0.000360857
-0.00608981
-0.000513685
-0.00619951
-0.000671907
-0.00632871
-0.000835883
-0.00649515
-0.00100632
-0.00669431
-0.00118387
-0.00692396
-0.00136913
-0.00718155
-0.0015628
-0.00746604
-0.001766
-0.00777459
-0.00197893
-0.0081065
-0.00848289
-0.00219853
-2.00709e-05
-0.00262647
-0.000108274
-0.00493862
-0.000240333
-0.00573155
-0.000391459
-0.00593869
-0.00055002
-0.00604095
-0.000713841
-0.00616489
-0.00088342
-0.00632557
-0.00105951
-0.00651823
-0.00124278
-0.00674069
-0.00143388
-0.00699045
-0.00163364
-0.00726628
-0.00184315
-0.00756508
-0.00206259
-0.00788706
-0.00826208
-0.0022834
-2.71064e-05
-0.00259936
-0.000124279
-0.00484145
-0.000263854
-0.00559197
-0.000421089
-0.00578145
-0.000585224
-0.00587681
-0.000754503
-0.00599561
-0.000929543
-0.00615053
-0.00111113
-0.00633664
-0.00129998
-0.00655184
-0.00149678
-0.00679365
-0.00170245
-0.00706061
-0.00191749
-0.00735004
-0.00213904
-0.00766551
-0.00801856
-0.00238256
-3.39804e-05
-0.00256538
-0.000139809
-0.00473562
-0.000286602
-0.00544518
-0.000449735
-0.00561832
-0.000619283
-0.00570727
-0.000793872
-0.00582103
-0.000974225
-0.00597018
-0.00116117
-0.0061497
-0.00135544
-0.00635756
-0.00155779
-0.00659129
-0.00176908
-0.00684933
-0.00198932
-0.00712979
-0.0022181
-0.00743672
-0.00777041
-0.00246625
-4.06831e-05
-0.0025247
-0.000154851
-0.00462145
-0.000308565
-0.00529147
-0.000477388
-0.0054495
-0.000652185
-0.00553247
-0.000831931
-0.00564128
-0.00101744
-0.00578466
-0.00120958
-0.00595756
-0.00140913
-0.00615802
-0.00161687
-0.00638355
-0.0018336
-0.0066326
-0.00205946
-0.00690394
-0.00229544
-0.00720074
-0.00751831
-0.00254755
-4.72026e-05
-0.00247749
-0.00016939
-0.00449926
-0.000329734
-0.00513112
-0.000504037
-0.00527519
-0.000683918
-0.00535259
-0.000868664
-0.00545653
-0.00105918
-0.00559415
-0.00125636
-0.00576038
-0.00146101
-0.00595336
-0.00167397
-0.00617059
-0.00189596
-0.00641061
-0.00212732
-0.00667258
-0.00236951
-0.00695854
-0.00726181
-0.00262601
-5.35271e-05
-0.00242397
-0.000183412
-0.00436938
-0.000350099
-0.00496444
-0.000529676
-0.00509562
-0.000714469
-0.00516779
-0.000904054
-0.00526695
-0.00109941
-0.00539879
-0.00130146
-0.00555833
-0.00151106
-0.00574376
-0.00172905
-0.00595261
-0.00195615
-0.0061835
-0.00219289
-0.00643584
-0.00244078
-0.00671065
-0.00700079
-0.0027018
-5.96448e-05
-0.00236432
-0.000196906
-0.00423212
-0.000369655
-0.00479169
-0.000554295
-0.00491098
-0.000743828
-0.00497826
-0.000938086
-0.00507269
-0.00113811
-0.00519876
-0.00134487
-0.00535158
-0.00155924
-0.00552939
-0.00178208
-0.00572977
-0.00201413
-0.00595146
-0.00225605
-0.00619392
-0.00250924
-0.00645746
-0.00673512
-0.00277492
-6.55471e-05
-0.00229877
-0.000209862
-0.0040878
-0.000388393
-0.00461316
-0.000577889
-0.00472148
-0.000771984
-0.00478417
-0.000970744
-0.00487393
-0.00117527
-0.00499423
-0.00138656
-0.00514029
-0.00160553
-0.00531042
-0.00183304
-0.00550226
-0.00206986
-0.00571464
-0.00231674
-0.00594704
-0.00257495
-0.00619924
-0.00646476
-0.00284531
-7.12313e-05
-0.00222754
-0.00022227
-0.00393676
-0.000406309
-0.00442912
-0.000600451
-0.00452734
-0.000798928
-0.00458569
-0.00100201
-0.00467084
-0.00121087
-0.00478538
-0.00142652
-0.00492464
-0.0016499
-0.00508704
-0.00188189
-0.00527026
-0.0021233
-0.00547323
-0.00237493
-0.00569541
-0.00263793
-0.00593625
-0.00618976
-0.00291292
-7.66881e-05
-0.00215085
-0.000234124
-0.00377933
-0.000423397
-0.00423984
-0.000621976
-0.00432876
-0.00082465
-0.00438302
-0.00103188
-0.00446361
-0.00124489
-0.00457237
-0.00146471
-0.00470482
-0.00169231
-0.00485943
-0.00192861
-0.00503396
-0.00217442
-0.00522742
-0.00243058
-0.00543926
-0.00269815
-0.00566867
-0.00591022
-0.00297769
-8.19092e-05
-0.00206895
-0.000245416
-0.00361582
-0.000439654
-0.00404561
-0.000642457
-0.00412596
-0.000849141
-0.00417633
-0.00106034
-0.00425241
-0.0012773
-0.00435541
-0.00150111
-0.00448102
-0.00173276
-0.00462778
-0.00197317
-0.00479356
-0.00222318
-0.00497741
-0.00248365
-0.00517878
-0.0027556
-0.00539672
-0.00562627
-0.00303955
-8.68871e-05
-0.00198206
-0.000256141
-0.00344656
-0.000455074
-0.00384667
-0.00066189
-0.00391914
-0.000872394
-0.00396583
-0.00108737
-0.00403744
-0.00130811
-0.00413467
-0.00153571
-0.00425341
-0.00177121
-0.00439229
-0.00201553
-0.00454924
-0.00226955
-0.00472339
-0.00253414
-0.00491419
-0.00281026
-0.0051206
-0.00533808
-0.00309846
-9.16158e-05
-0.00189044
-0.000266293
-0.00327189
-0.000469655
-0.00364331
-0.00068027
-0.00370852
-0.000894399
-0.0037517
-0.00111296
-0.00381888
-0.00133728
-0.00391034
-0.0015685
-0.0040222
-0.00180765
-0.00415314
-0.00205569
-0.00430119
-0.00231351
-0.00446557
-0.00258199
-0.00464571
-0.00286209
-0.00484049
-0.00504582
-0.00315435
-9.60894e-05
-0.00179435
-0.000275868
-0.00309211
-0.000483393
-0.00343579
-0.000697593
-0.00349433
-0.000915151
-0.00353414
-0.0011371
-0.00359693
-0.00136481
-0.00368263
-0.00159944
-0.00378757
-0.00184204
-0.00391053
-0.0020936
-0.00404964
-0.00235502
-0.00420415
-0.00262719
-0.00437353
-0.00291107
-0.00455662
-0.00474969
-0.00320719
-0.000100303
-0.00169405
-0.00028486
-0.00290755
-0.000496287
-0.00322436
-0.000713855
-0.00327676
-0.000934641
-0.00331336
-0.00115979
-0.00337178
-0.00139069
-0.00345173
-0.00162852
-0.00354974
-0.00187438
-0.00366467
-0.00212925
-0.00379477
-0.00239406
-0.00393935
-0.00266971
-0.00409788
-0.00295715
-0.00426919
-0.00444991
-0.00325693
-0.000104253
-0.0015898
-0.000293268
-0.00271854
-0.000508332
-0.0030093
-0.000729053
-0.00305604
-0.000952865
-0.00308954
-0.001181
-0.00314365
-0.00141489
-0.00321784
-0.00165573
-0.0033089
-0.00190464
-0.00341576
-0.00216262
-0.00353679
-0.0024306
-0.00367136
-0.00270952
-0.00381896
-0.0030003
-0.00397841
-0.00414668
-0.00330353
-0.000107935
-0.00148186
-0.000301088
-0.00252538
-0.000519528
-0.00279086
-0.000743182
-0.00283238
-0.000969815
-0.00286291
-0.00120074
-0.00291272
-0.00143742
-0.00298116
-0.00168106
-0.00306525
-0.00193281
-0.00316402
-0.00219368
-0.00327592
-0.00246463
-0.00340041
-0.0027466
-0.00353699
-0.0030405
-0.00368451
-0.00384024
-0.00334695
-0.000111346
-0.00137052
-0.000308316
-0.00232841
-0.000529872
-0.0025693
-0.000756241
-0.00260601
-0.000985487
-0.00263366
-0.001219
-0.00267921
-0.00145825
-0.00274191
-0.00170449
-0.00281902
-0.00195887
-0.00290964
-0.00222242
-0.00301237
-0.00249611
-0.00312671
-0.00278091
-0.00325219
-0.00307771
-0.00338771
-0.0035308
-0.00338715
-0.000114483
-0.00125603
-0.000314952
-0.00212795
-0.000539363
-0.00234489
-0.000768226
-0.00237715
-0.000999877
-0.00240201
-0.00123577
-0.00244332
-0.00147739
-0.00250028
-0.00172601
-0.00257039
-0.0019828
-0.00265285
-0.00224881
-0.00274636
-0.00252503
-0.00285049
-0.00281243
-0.0029648
-0.00311191
-0.00308823
-0.0032186
-0.0034241
-0.000117343
-0.00113869
-0.000320992
-0.0019243
-0.000547999
-0.00211788
-0.000779135
-0.00214602
-0.00101298
-0.00216817
-0.00125104
-0.00220526
-0.00149482
-0.0022565
-0.00174561
-0.0023196
-0.0020046
-0.00239386
-0.00227285
-0.00247811
-0.00255137
-0.00257197
-0.00284114
-0.00267503
-0.00314306
-0.00278631
-0.00290389
-0.00345778
-0.000119923
-0.00101877
-0.000326434
-0.00171779
-0.000555779
-0.00188854
-0.000788965
-0.00191283
-0.00102479
-0.00193234
-0.0012648
-0.00196525
-0.00151054
-0.00201076
-0.00176329
-0.00206686
-0.00202425
-0.0021329
-0.00229452
-0.00220785
-0.00257511
-0.00229138
-0.00286701
-0.00238313
-0.00317114
-0.00248219
-0.00258689
-0.00348813
-0.000122223
-0.000896544
-0.000331278
-0.00150873
-0.000562701
-0.00165711
-0.000797714
-0.00167782
-0.00103531
-0.00169475
-0.00127707
-0.00172349
-0.00152454
-0.00176328
-0.00177903
-0.00181237
-0.00204175
-0.00187018
-0.00231381
-0.0019358
-0.00259623
-0.00200895
-0.00289003
-0.00208933
-0.00319612
-0.0021761
-0.00226785
-0.00351515
-0.00012424
-0.000772303
-0.000335522
-0.00129745
-0.000568764
-0.00142387
-0.00080538
-0.0014412
-0.00104452
-0.00145561
-0.00128782
-0.00148019
-0.00153682
-0.00151428
-0.00179284
-0.00155635
-0.0020571
-0.00160591
-0.00233071
-0.00166219
-0.00261473
-0.00172493
-0.00291019
-0.00179388
-0.00321798
-0.00186831
-0.00194704
-0.00353879
-0.000125973
-0.00064633
-0.000339164
-0.00108426
-0.000573968
-0.00118907
-0.000811961
-0.00120321
-0.00105244
-0.00121513
-0.00129705
-0.00123558
-0.00154737
-0.00126397
-0.0018047
-0.00129902
-0.00207029
-0.00134033
-0.00234523
-0.00138724
-0.00263062
-0.00143954
-0.00292747
-0.00149703
-0.00323671
-0.00155907
-0.00162472
-0.00355903
-0.00012742
-0.000518911
-0.000342204
-0.000869473
-0.00057831
-0.00095296
-0.000817456
-0.000964063
-0.00105905
-0.000973533
-0.00130477
-0.000989856
-0.00155619
-0.00101255
-0.00181463
-0.00104058
-0.00208132
-0.00107364
-0.00235738
-0.00111118
-0.00264389
-0.00115303
-0.00294189
-0.00119903
-0.0032523
-0.00124866
-0.00130116
-0.00357586
-0.00012858
-0.000390331
-0.00034464
-0.000653414
-0.000581791
-0.000715809
-0.000821861
-0.000723992
-0.00106436
-0.000731036
-0.00131097
-0.000743243
-0.00156328
-0.000760241
-0.00182261
-0.000781258
-0.00209019
-0.000806049
-0.00236716
-0.000834213
-0.00265457
-0.000865622
-0.00295347
-0.000900129
-0.00326479
-0.000937338
-0.00097667
-0.00358927
-0.000129453
-0.000260878
-0.000346471
-0.000436395
-0.000584408
-0.000477873
-0.000825176
-0.000483224
-0.00106835
-0.000487859
-0.00131564
-0.000495954
-0.00156863
-0.000507256
-0.00182863
-0.000521251
-0.00209691
-0.000537773
-0.00237457
-0.000556557
-0.00266267
-0.000577514
-0.00296226
-0.000600544
-0.00327423
-0.00062537
-0.000651569
-0.00359933
-0.000130037
-0.000130842
-0.000347697
-0.000218735
-0.000586161
-0.000239409
-0.000827398
-0.000241986
-0.00107103
-0.000244224
-0.00131878
-0.000248207
-0.00157223
-0.000253811
-0.0018327
-0.000260775
-0.00210146
-0.000269018
-0.00237961
-0.000278407
-0.00266822
-0.000288901
-0.00296831
-0.000300451
-0.00328075
-0.000312929
-0.000326117
-0.00360621
-0.000130332
-5.09978e-07
-0.000348317
-7.49785e-07
-0.000587048
-6.77461e-07
-0.000828526
-5.08807e-07
-0.0010724
-3.50954e-07
-0.00132038
-2.21922e-07
-0.00157407
-1.21665e-07
-0.0018348
-4.78082e-08
-0.00210382
1.34738e-09
-0.00238225
2.66357e-08
-0.00267118
2.73025e-08
-0.00297163
2.39164e-09
-0.00328451
-5.43299e-08
-1.8011e-07
-0.00361045
-0.000130337
0.000129827
-0.00034833
0.000217243
-0.00058707
0.000238063
-0.000828558
0.000240979
-0.00107244
0.000243535
-0.00132045
0.00024778
-0.00157416
0.000253589
-0.00183491
0.000260708
-0.00210397
0.000269059
-0.00238246
0.000278515
-0.00267147
0.000289039
-0.00297206
0.000300594
-0.00328517
0.000313057
0.000326272
-0.00361162
-0.000130053
0.000259881
-0.000347736
0.000434925
-0.000586225
0.000476551
-0.000827493
0.000482247
-0.00107117
0.00048721
-0.00131896
0.000495576
-0.00157247
0.000507096
-0.00183303
0.000521263
-0.00210189
0.000537918
-0.00238017
0.000556804
-0.00266898
0.000577848
-0.00296936
0.000600966
-0.00328221
0.00062591
0.000652282
-0.00360822
-0.00012948
0.000389361
-0.000346535
0.000651981
-0.000584513
0.000714529
-0.000825331
0.000723065
-0.00106857
0.000730448
-0.00131593
0.000742942
-0.00156901
0.000760175
-0.00182914
0.000781387
-0.00209756
0.000806338
-0.00237539
0.00083464
-0.00266372
0.000866177
-0.00296357
0.000900817
-0.00327584
0.000938175
0.000977652
-0.00360121
-0.000128618
0.000517979
-0.000344728
0.00086809
-0.000581934
0.000951735
-0.00082207
0.000963201
-0.00106465
0.000973026
-0.00131136
0.000989652
-0.00156378
0.0010126
-0.00182324
0.00104085
-0.00209099
0.00107408
-0.00236812
0.00111178
-0.00265572
0.00115377
-0.0029548
0.00119989
-0.00326625
0.00124963
0.00130218
-0.00359078
-0.000127467
0.000645446
-0.000342313
0.00108294
-0.000578488
0.00118791
-0.000817713
0.00120243
-0.00105941
0.00121472
-0.00130524
0.00123548
-0.00155678
0.00126414
-0.00181535
0.00129942
-0.00208219
0.00134091
-0.00235839
0.00138798
-0.00264501
0.0014404
-0.00294308
0.00149796
-0.0032535
0.00156005
0.00162566
-0.00357697
-0.000126028
0.000771475
-0.000339293
0.0012962
-0.000574175
0.00142279
-0.000812259
0.00144051
-0.00105284
0.0014553
-0.00129757
0.00148022
-0.00154801
0.00151458
-0.00180547
0.00155687
-0.00207117
0.00160661
-0.0023462
0.00166301
-0.00263163
0.00172583
-0.00292847
0.0017948
-0.00323763
0.00186921
0.00194785
-0.00355983
-0.000124303
0.000895778
-0.000335667
0.00150757
-0.000568997
0.00165612
-0.00080571
0.00167722
-0.00104496
0.00169455
-0.00128837
0.00172363
-0.00153749
0.0017637
-0.00179361
0.00181299
-0.00205794
0.00187095
-0.00233159
0.00193666
-0.0026156
0.00200984
-0.00291099
0.00209018
-0.00321867
0.00217689
0.00226853
-0.00353934
-0.000122292
0.00101807
-0.000331436
0.00171671
-0.000562953
0.00188764
-0.000798067
0.00191234
-0.00103577
0.00193225
-0.00127764
0.00196549
-0.00152521
0.00201127
-0.00177977
0.00206756
-0.00204254
0.00213371
-0.00231458
0.00220871
-0.00259695
0.00229221
-0.00289065
0.00238389
-0.00319662
0.00248285
0.00258745
-0.00351553
-0.000119996
0.00113807
-0.000326603
0.00192332
-0.000556045
0.00211708
-0.000789334
0.00214562
-0.00102526
0.00216819
-0.00126538
0.00220561
-0.00151119
0.00225709
-0.00176398
0.00232035
-0.00202495
0.00239468
-0.00229518
0.00247893
-0.00257569
0.00257272
-0.00286749
0.00267569
-0.0031715
0.00278687
0.00290435
-0.0034884
-0.000117418
0.00125548
-0.000321167
0.00212707
-0.000548275
0.00234419
-0.000779512
0.00237686
-0.00101345
0.00240213
-0.0012516
0.00244375
-0.00149544
0.00250093
-0.00174625
0.00257116
-0.00200521
0.00265364
-0.0022734
0.00274712
-0.00255183
0.00285115
-0.00284149
0.00296535
-0.00314332
0.00308869
0.003219
-0.00345797
-0.00011456
0.00137004
-0.000315131
0.00232764
-0.000539644
0.0025687
-0.000768605
0.00260582
-0.00100035
0.00263387
-0.0012363
0.00267971
-0.00147797
0.00274259
-0.00172658
0.00281978
-0.00198333
0.00291039
-0.00224926
0.00301305
-0.00252539
0.00312728
-0.0028127
0.00325266
-0.0031121
0.0033881
0.00353114
-0.00342425
-0.000111424
0.00148147
-0.000308498
0.00252471
-0.000530154
0.00279036
-0.000756615
0.00283228
-0.000985942
0.00286319
-0.00121951
0.00291327
-0.00145878
0.00298187
-0.001705
0.00306599
-0.00195932
0.00316471
-0.00222278
0.00327652
-0.00249639
0.00340089
-0.00278111
0.00353737
-0.00307785
0.00368484
0.00384055
-0.00338726
-0.000108013
0.00158948
-0.000301268
0.00271797
-0.000519806
0.0030089
-0.000743547
0.00305602
-0.000970249
0.0030899
-0.00120122
0.00314424
-0.0014379
0.00321855
-0.0016815
0.0033096
-0.00193318
0.00341639
-0.00219397
0.0035373
-0.00246485
0.00367176
-0.00274675