/*--------------------------------*- C++ -*----------------------------------*\
  =========                 |
  \\      /  F ield         | OpenFOAM: The Open Source CFD Toolbox
   \\    /   O peration     | Website:  https://openfoam.org
    \\  /    A nd           | Version:  7
     \\/     M anipulation  |
\*---------------------------------------------------------------------------*/
FoamFile
{
    version     2.0;
    format      ascii;
    class       volVectorField;
    location    "25";
    object      U;
}
// * * * * * * * * * * * * * * * * * * * * * * * * * * * * * * * * * * * * * //

dimensions      [0 1 -1 0 0 0 0];

internalField   nonuniform List<vector> 
8330
(
(-0.0193278 0.0265922 1.93271e-20)
(-0.0203423 0.0262685 -2.56379e-20)
(-0.0213509 0.0258749 -1.46981e-20)
(-0.0223465 0.0254172 2.19958e-20)
(-0.0233184 0.0248977 1.5061e-20)
(-0.0422583 0.0483633 1.86166e-20)
(-0.024251 0.0243146 -1.44417e-20)
(-0.0420491 0.0462027 -1.14977e-20)
(-0.0251217 0.0236622 1.38557e-20)
(-0.0413255 0.0438356 -1.35372e-20)
(-0.0258995 0.022931 -2.12376e-21)
(-0.0399881 0.0412773 1.15852e-20)
(-0.0265532 0.022118 -6.06142e-21)
(-0.0379198 0.0385381 4.38055e-21)
(-0.0135744 0.0429018 -4.71185e-21)
(-0.0270516 0.0212183 -1.35434e-21)
(-0.0349921 0.0356243 -8.26935e-21)
(-0.00324372 0.0390856 -1.21022e-20)
(-0.0273518 0.0202205 -3.10046e-21)
(-0.031073 0.0325502 2.53199e-21)
(0.009236 0.0352999 -8.3685e-21)
(0.0933146 0.035157 2.17087e-21)
(-0.0274042 0.0191135 2.67488e-21)
(-0.0260233 0.0293349 -2.87083e-21)
(0.0241044 0.0316259 1.66315e-20)
(0.122717 0.0326581 1.06363e-21)
(-0.0271549 0.0178893 4.41973e-21)
(-0.0196962 0.0260029 -1.77738e-21)
(0.0415972 0.0281557 -8.36832e-21)
(0.156278 0.0309621 -1.5252e-20)
(-0.0265457 0.0165432 -8.80258e-21)
(-0.0119401 0.0225861 5.40889e-21)
(0.0619404 0.0249956 3.66592e-21)
(0.194147 0.03028 1.0734e-20)
(0.379589 0.047854 3.36165e-21)
(-0.0255149 0.0150744 2.60625e-20)
(-0.00260122 0.0191262 -7.46412e-21)
(0.0853418 0.0222687 3.28252e-22)
(0.236361 0.0308357 1.27121e-21)
(0.440627 0.0541813 -8.38807e-21)
(-0.0239978 0.0134872 -2.30086e-20)
(0.00847398 0.0156765 1.22443e-20)
(0.111982 0.0201183 3.36152e-21)
(0.282812 0.032852 -4.00781e-21)
(0.504548 0.0624496 8.81308e-22)
(0.738206 0.10237 -4.3291e-21)
(-0.0219273 0.0117913 9.08359e-21)
(0.0214358 0.012304 -2.46193e-20)
(0.141999 0.0187102 -2.03792e-21)
(0.333218 0.0365284 -6.23165e-22)
(0.570202 0.0725511 4.89427e-21)
(0.805741 0.116243 4.91969e-22)
(0.999341 0.155521 -1.50502e-20)
(-0.0192356 0.0100026 -1.8867e-20)
(0.0364282 0.00909036 2.78386e-20)
(0.175474 0.0182321 -6.22143e-21)
(0.387105 0.0420122 6.74019e-22)
(0.636346 0.0842808 -1.89491e-21)
(0.869557 0.130704 -3.99526e-22)
(1.05014 0.169227 -1.58271e-20)
(-0.0158543 0.00814324 1.54709e-20)
(0.0535844 0.00613411 1.15827e-20)
(0.212409 0.0188888 1.09533e-20)
(0.44382 0.0493735 2.9097e-21)
(0.701751 0.0973726 -1.74452e-22)
(0.928813 0.145454 -4.06058e-21)
(1.09459 0.182446 1.97072e-20)
(1.19818 0.204936 -3.22891e-20)
(-0.0117162 0.00624185 -1.24993e-21)
(0.0730221 0.00355184 -1.34809e-20)
(0.252709 0.0208905 -1.46706e-20)
(0.502555 0.0585929 -1.00341e-22)
(0.765299 0.11154 -2.52116e-21)
(0.982971 0.160253 1.71059e-21)
(1.1329 0.195088 1.01304e-20)
(1.22104 0.214497 -1.59532e-20)
(1.26487 0.221454 -7.39128e-20)
(-0.00675576 0.00433338 -1.35111e-20)
(0.0948365 0.00147952 -2.57968e-20)
(0.296164 0.0244346 2.04981e-20)
(0.562409 0.0695673 -1.68828e-21)
(0.826051 0.126507 -1.08301e-21)
(1.03176 0.174921 -9.67366e-22)
(1.16545 0.207118 -1.85999e-21)
(1.23913 0.22337 4.67019e-20)
(1.27266 0.227671 -2.25457e-20)
(1.28356 0.224515 -5.44012e-20)
(-0.000910289 0.0024592 1.9489e-21)
(0.119092 7.25681e-05 1.27924e-20)
(0.342443 0.0296836 1.99581e-20)
(0.622452 0.0821309 -1.6752e-21)
(0.883278 0.142032 -5.82755e-22)
(1.07513 0.189329 -4.61344e-21)
(1.19267 0.218532 -2.35361e-20)
(1.2531 0.231636 -3.82427e-20)
(1.27776 0.233467 6.11625e-20)
(1.28357 0.228699 6.68435e-20)
(1.28094 0.220605 9.0178e-20)
(0.00587925 0.000667279 4.01348e-21)
(0.145813 -0.00049586 6.39784e-21)
(0.391101 0.0367463 -4.88493e-20)
(0.681786 0.0960835 1.00015e-20)
(0.936463 0.15791 -2.2388e-21)
(1.11319 0.203393 3.24571e-21)
(1.2151 0.229357 1.34385e-20)
(1.26356 0.239381 1.32039e-20)
(1.28067 0.238937 4.87347e-20)
(1.28237 0.232731 -1.10824e-19)
(1.27778 0.223727 -2.04306e-20)
(1.2715 0.213321 -5.2324e-20)
(0.0136673 -0.000987328 7.47491e-21)
(0.174973 -3.95838e-05 -1.20777e-20)
(0.441594 0.0456664 1.79361e-20)
(0.739599 0.111215 -9.74257e-21)
(0.985284 0.173978 -3.74857e-21)
(1.14617 0.217065 6.81867e-21)
(1.23323 0.239636 2.52832e-20)
(1.27105 0.24669 -2.17915e-20)
(1.28182 0.244162 -1.75147e-20)
(1.28024 0.23667 6.01487e-20)
(1.27414 0.226849 -7.8146e-21)
(1.26721 0.215992 4.24987e-20)
(1.26031 0.205346 -3.60237e-20)
(0.0225022 -0.00244194 -3.9621e-20)
(0.206483 0.00163239 2.22728e-20)
(0.493312 0.0564228 -1.47057e-20)
(0.795194 0.127326 1.83847e-21)
(1.02958 0.19011 4.62474e-21)
(1.1744 0.230324 -5.24228e-21)
(1.24758 0.249423 -4.38979e-20)
(1.27605 0.253644 2.92655e-20)
(1.28154 0.249212 -7.64254e-21)
(1.27736 0.240559 -7.28846e-20)
(1.27013 0.229988 3.91524e-20)
(1.2627 0.218693 6.27586e-21)
(1.2556 0.207518 3.24215e-20)
(1.25 0.194687 -1.02531e-20)
(0.0324249 -0.0036257 3.60408e-20)
(0.240193 0.0047045 6.67405e-21)
(0.54561 0.0689396 8.60719e-21)
(0.848012 0.144235 -6.79647e-21)
(1.06934 0.206208 -1.78439e-21)
(1.19821 0.243168 7.0103e-21)
(1.25863 0.258777 -1.29678e-20)
(1.27897 0.260317 -3.18993e-20)
(1.2801 0.254145 2.33768e-20)
(1.27388 0.24443 3.37818e-20)
(1.26579 0.233159 -4.27275e-20)
(1.25799 0.221426 -2.57467e-20)
(1.25074 0.209723 1.01734e-19)
(1.24496 0.196772 6.21897e-20)
(0.0434659 -0.00445947 1.99398e-20)
(0.275884 0.00934174 -2.84339e-20)
(0.597841 0.0831015 3.0413e-20)
(0.897626 0.161783 5.15159e-21)
(1.10462 0.222201 -1.13733e-21)
(1.21799 0.25561 5.38312e-21)
(1.26679 0.267759 3.33096e-20)
(1.28015 0.266775 4.06993e-20)
(1.27773 0.259004 -5.72005e-20)
(1.26992 0.248305 4.09732e-20)
(1.26118 0.236368 -3.76633e-20)
(1.25309 0.224188 5.67282e-20)
(1.24574 0.211957 -6.58104e-20)
(1.2398 0.198877 2.51957e-20)
(0.0556427 -0.00485626 -3.94502e-20)
(0.313276 0.0156775 -4.46685e-20)
(0.649388 0.0987694 4.30359e-21)
(0.943738 0.179835 4.74565e-21)
(1.13558 0.238037 3.33589e-21)
(1.2341 0.267674 3.303e-21)
(1.27246 0.276426 6.20273e-21)
(1.27987 0.273072 -4.56877e-20)
(1.27458 0.263825 -6.59899e-21)
(1.26554 0.2522 2.83029e-20)
(1.25631 0.239615 3.2453e-20)
(1.24801 0.226975 -2.04774e-20)
(1.24059 0.214215 -8.59039e-20)
(1.23452 0.200998 -5.55759e-20)
(0.0689557 -0.00472269 -1.56021e-21)
(0.352034 0.0238045 5.0955e-20)
(0.69968 0.115793 1.98213e-20)
(0.986157 0.198275 -1.30198e-20)
(1.16241 0.253679 2.11464e-21)
(1.24692 0.279386 -4.69025e-21)
(1.27599 0.284833 -1.01171e-20)
(1.27838 0.279254 3.98091e-20)
(1.27078 0.268632 2.72326e-20)
(1.2608 0.25612 -2.94939e-20)
(1.25121 0.242898 -4.68289e-21)
(1.24276 0.229782 3.21738e-20)
(1.23529 0.216493 4.6055e-20)
(1.22912 0.203126 1.51969e-20)
(0.0833852 -0.0039614 1.06632e-20)
(0.391783 0.0337709 -3.89315e-21)
(0.748216 0.134021 -3.72893e-20)
(1.02478 0.217005 -8.77534e-21)
(1.18535 0.269102 -5.35915e-21)
(1.25678 0.290779 -4.67789e-21)
(1.27765 0.293025 -4.71266e-21)
(1.27585 0.285356 -1.84474e-20)
(1.26643 0.27344 1.24776e-20)
(1.25573 0.260069 -2.34629e-20)
(1.24589 0.246211 1.35476e-20)
(1.23732 0.2326 -1.65107e-20)
(1.22984 0.218782 1.23208e-21)
(1.22358 0.205254 3.96843e-20)
(0.0988887 -0.0024744 2.14651e-20)
(0.432124 0.0455806 -3.17353e-20)
(0.794565 0.153303 2.75461e-21)
(1.05959 0.235938 1.24962e-20)
(1.20464 0.28429 3.45596e-21)
(1.264 0.301884 9.46204e-21)
(1.27771 0.301045 -1.40964e-20)
(1.27244 0.291406 -5.07609e-21)
(1.26158 0.278258 1.64068e-20)
(1.25035 0.264043 2.07662e-20)
(1.24033 0.249546 -3.36451e-20)
(1.2317 0.235421 -4.11484e-20)
(1.22423 0.221076 1.48167e-20)
(1.2179 0.207373 -4.17896e-20)
(0.115399 -0.000167245 1.99939e-20)
(0.472641 0.0591979 1.1042e-20)
(0.838374 0.173496 2.1493e-20)
(1.09062 0.254998 -4.99482e-21)
(1.22054 0.299232 -1.09855e-21)
(1.26885 0.312727 -6.45078e-21)
(1.27637 0.308924 1.58907e-20)
(1.26825 0.297419 2.84962e-20)
(1.25629 0.283088 -2.72651e-20)
(1.24468 0.268036 2.56628e-20)
(1.23455 0.252893 4.71724e-20)
(1.22589 0.238236 4.63565e-20)
(1.21846 0.223366 -3.85661e-20)
(1.21209 0.209474 9.47804e-21)
(0.132825 0.00304664 -2.54857e-20)
(0.512921 0.0745538 9.58615e-21)
(0.879364 0.194462 -1.54285e-20)
(1.11793 0.274116 -2.19005e-21)
(1.23329 0.31392 1.57376e-21)
(1.27158 0.323336 -5.70049e-22)
(1.2738 0.316688 7.35177e-22)
(1.26339 0.303408 -1.3603e-20)
(1.25059 0.287927 1.98351e-20)
(1.23872 0.272038 -2.54673e-20)
(1.22854 0.256241 -2.66382e-20)
(1.21989 0.241034 -3.65205e-20)
(1.21253 0.225643 8.85824e-21)
(1.20614 0.211547 1.10495e-20)
(0.151051 0.00724172 1.42819e-21)
(0.552564 0.0915525 6.55105e-21)
(0.917326 0.216071 -9.71962e-21)
(1.14164 0.293228 -1.49115e-21)
(1.24312 0.328348 -2.69753e-22)
(1.27243 0.333729 1.01088e-21)
(1.27014 0.324353 3.37785e-21)
(1.2579 0.309373 1.11422e-20)
(1.24449 0.292767 -9.37262e-21)
(1.23247 0.276038 -1.41816e-20)
(1.2223 0.259576 3.16633e-21)
(1.2137 0.243805 1.85983e-21)
(1.20644 0.227896 3.29615e-20)
(1.20005 0.213583 -1.807e-20)
(0.169941 0.0124768 1.32702e-21)
(0.59119 0.110078 -2.71042e-21)
(0.952111 0.2382 5.41909e-21)
(1.16186 0.312274 2.02518e-21)
(1.25028 0.342512 -1.5701e-22)
(1.27158 0.343923 7.20996e-23)
(1.26552 0.331929 -2.5604e-21)
(1.25185 0.315314 -5.70295e-22)
(1.23802 0.297596 1.54682e-21)
(1.22594 0.280022 9.64782e-21)
(1.21582 0.262885 3.30957e-22)
(1.20731 0.246536 8.61783e-22)
(1.20018 0.230115 -1.28226e-20)
(1.19381 0.21557 -7.47453e-21)
(0.189342 0.0187926 1.18386e-21)
(0.628446 0.129999 -2.32533e-21)
(0.983626 0.26073 5.08139e-21)
(1.17875 0.331196 1.83474e-21)
(1.25495 0.356405 -7.61374e-23)
(1.26919 0.353926 5.65669e-23)
(1.26001 0.339418 -2.59343e-21)
(1.24527 0.32122 -1.07138e-21)
(1.23119 0.302401 2.04642e-21)
(1.21913 0.283974 1.00852e-20)
(1.20911 0.266153 -7.03179e-23)
(1.20073 0.249215 -4.09681e-23)
(1.19375 0.232289 -1.28554e-20)
(1.18743 0.217497 -7.00801e-21)
(0.209087 0.0262103 -2.69432e-22)
(0.664015 0.151172 7.25618e-21)
(1.01182 0.283548 -9.23514e-21)
(1.19245 0.349939 -1.38586e-21)
(1.25735 0.370018 4.30655e-22)
(1.26542 0.363743 2.57685e-21)
(1.25371 0.346817 5.02286e-21)
(1.23819 0.327079 1.55004e-20)
(1.22399 0.307164 -1.29904e-20)
(1.21202 0.287877 -2.05592e-20)
(1.20215 0.269365 8.83707e-21)
(1.19394 0.25183 1.40369e-21)
(1.18716 0.234405 2.87656e-20)
(1.18092 0.219353 -1.49452e-20)
(0.228996 0.0347317 -3.05126e-20)
(0.697617 0.173445 1.28708e-20)
(1.03668 0.306544 -1.8518e-20)
(1.20312 0.368448 -8.47886e-22)
(1.25764 0.38334 -5.43669e-21)
(1.26039 0.373372 2.0518e-21)
(1.24666 0.354117 -6.98971e-22)
(1.23062 0.332874 -1.67411e-20)
(1.21643 0.311866 2.16568e-20)
(1.20462 0.291714 -3.13543e-20)
(1.19495 0.272504 -3.71671e-20)
(1.18695 0.254367 -4.0549e-20)
(1.1804 0.236449 1.7833e-20)
(1.17427 0.221129 2.2017e-20)
(0.248886 0.0443396 1.73798e-20)
(0.729007 0.196661 1.47032e-20)
(1.05823 0.329614 2.32196e-20)
(1.2109 0.386672 -1.54593e-21)
(1.25599 0.396356 5.46675e-21)
(1.25419 0.382804 -1.92999e-20)
(1.2389 0.361303 3.12203e-20)
(1.22258 0.338586 4.75133e-20)
(1.20851 0.316486 -4.5945e-20)
(1.19693 0.295465 3.58011e-20)
(1.18751 0.275553 6.66071e-20)
(1.17976 0.256812 6.7402e-20)
(1.17347 0.238406 -5.23013e-20)
(1.1675 0.222811 4.02009e-21)
(0.26857 0.0549997 2.23951e-20)
(0.757983 0.220657 -3.715e-20)
(1.07651 0.352652 -1.32407e-22)
(1.21595 0.404557 8.35489e-21)
(1.25253 0.409049 -1.35278e-20)
(1.24692 0.392027 1.82003e-20)
(1.23049 0.368355 -1.96107e-20)
(1.21407 0.344191 -1.43708e-20)
(1.20022 0.321002 2.97652e-20)
(1.18894 0.29911 3.46801e-20)
(1.17982 0.278496 -4.43081e-20)
(1.17236 0.25915 -6.18495e-20)
(1.16637 0.24026 2.99834e-20)
(1.16059 0.224385 -5.42793e-20)
(0.287861 0.0666623 1.88362e-20)
(0.784379 0.245269 -6.46287e-21)
(1.09158 0.375556 -3.93014e-20)
(1.21842 0.422053 -5.12062e-21)
(1.24741 0.421398 2.6369e-20)
(1.23864 0.401023 -1.58334e-20)
(1.22144 0.375251 -1.42292e-20)
(1.20511 0.349664 -2.58416e-20)
(1.19158 0.32539 -3.79286e-21)
(1.18066 0.302629 -4.86462e-20)
(1.17189 0.281317 2.58165e-20)
(1.16477 0.261368 3.02685e-22)
(1.15911 0.241999 -4.45407e-21)
(1.15351 0.225831 4.37808e-20)
(0.306578 0.0792638 -1.26366e-21)
(0.808066 0.270332 8.58538e-20)
(1.10352 0.398227 1.74323e-20)
(1.21846 0.439108 -7.12258e-22)
(1.24073 0.433377 -5.88361e-21)
(1.22943 0.40977 -3.39947e-20)
(1.21178 0.381965 -1.92359e-20)
(1.1957 0.354979 9.34224e-20)
(1.18259 0.329626 8.55855e-20)
(1.17208 0.306001 -1.09999e-19)
(1.16371 0.283996 9.91696e-21)
(1.15697 0.263449 5.36668e-20)
(1.1517 0.243628 7.55086e-20)
(1.14622 0.227156 3.0154e-20)
(0.324545 0.0927289 -5.14405e-20)
(0.828952 0.295683 -8.10543e-20)
(1.11242 0.420564 4.88143e-21)
(1.21619 0.455672 1.82771e-21)
(1.23261 0.444959 -1.45809e-20)
(1.21933 0.418242 1.10685e-20)
(1.20154 0.388468 2.47944e-20)
(1.18585 0.360106 -1.21637e-19)
(1.17323 0.333685 1.2505e-20)
(1.16322 0.309205 2.86222e-20)
(1.15529 0.286514 8.99944e-20)
(1.14898 0.265372 -6.40374e-20)
(1.14416 0.245149 -1.39444e-19)
(1.13879 0.228412 -1.39409e-19)
(0.341596 0.106971 2.24696e-20)
(0.846975 0.32116 -4.06781e-20)
(1.11837 0.442471 2.81304e-20)
(1.21176 0.471693 1.12156e-21)
(1.22313 0.456113 -3.84113e-21)
(1.20839 0.426408 5.41461e-20)
(1.19072 0.394727 9.55899e-20)
(1.17556 0.365017 1.40361e-19)
(1.16353 0.337542 -1.5689e-19)
(1.15406 0.312221 1.07931e-19)
(1.14662 0.288854 -6.12586e-20)
(1.14082 0.26712 6.87043e-20)
(1.13644 0.246529 -9.63066e-20)
(1.1313 0.229492 5.9703e-20)
(0.357576 0.121896 6.54517e-20)
(0.862102 0.346604 1.94768e-20)
(1.12147 0.463851 -5.69332e-21)
(1.20529 0.48712 4.10949e-21)
(1.21239 0.466805 2.22156e-20)
(1.19667 0.434237 2.81557e-20)
(1.17935 0.400712 -2.23785e-20)
(1.16484 0.369682 -1.12874e-19)
(1.15347 0.34117 9.29722e-20)
(1.14462 0.315027 2.05359e-20)
(1.13774 0.290994 -4.99835e-20)
(1.13248 0.268687 -3.81917e-20)
(1.12853 0.247746 2.06069e-19)
(1.12373 0.230423 9.61969e-20)
(0.372347 0.137399 -7.43265e-20)
(0.874325 0.371863 5.42303e-20)
(1.12185 0.48461 -1.84787e-20)
(1.19689 0.5019 -5.05954e-21)
(1.20046 0.476999 -7.89367e-20)
(1.18418 0.441692 -9.58781e-20)
(1.16743 0.406386 -1.6519e-19)
(1.1537 0.374069 9.13345e-20)
(1.14309 0.344544 4.97378e-21)
(1.13491 0.317598 -1.83498e-19)
(1.12864 0.29292 1.18911e-19)
(1.12396 0.270063 -1.47823e-20)
(1.12048 0.248786 8.12436e-20)
(1.11607 0.231174 -8.4921e-20)
(0.385781 0.15337 2.42987e-20)
(0.883657 0.396785 -2.72373e-20)
(1.1196 0.504656 6.98896e-21)
(1.1867 0.515982 2.41524e-20)
(1.18741 0.486658 8.02666e-20)
(1.17097 0.448738 8.1774e-20)
(1.15498 0.411714 1.27805e-19)
(1.14215 0.378148 -7.18449e-20)
(1.13238 0.347637 -1.02013e-19)
(1.12494 0.319914 2.61456e-19)
(1.11933 0.29461 -1.2146e-19)
(1.11526 0.271231 1.96028e-19)
(1.11228 0.249636 -1.6757e-19)
(1.10831 0.231742 1.30833e-19)
(0.397772 0.169692 -4.89851e-21)
(0.89013 0.421225 1.73172e-20)
(1.11485 0.523898 -7.10119e-21)
(1.1748 0.529312 -1.87856e-20)
(1.17332 0.495742 7.57611e-20)
(1.15706 0.455337 3.3338e-20)
(1.14204 0.41666 7.59461e-20)
(1.13022 0.381885 4.96165e-20)
(1.12135 0.350425 1.32631e-19)
(1.11471 0.321952 -2.9057e-19)
(1.10981 0.296048 -1.26357e-19)
(1.1064 0.272175 -1.44584e-19)
(1.10396 0.250284 2.14604e-19)
(1.10047 0.232113 -9.15131e-20)
(0.408226 0.186245 1.80371e-20)
(0.893795 0.445041 2.05062e-20)
(1.10772 0.54225 6.12419e-21)
(1.16132 0.541839 1.70863e-20)
(1.15823 0.504204 -5.52268e-20)
(1.14251 0.46145 -8.612e-20)
(1.12862 0.42119 -1.5993e-19)
(1.1179 0.385252 -1.43403e-19)
(1.11001 0.352881 1.77615e-19)
(1.10423 0.323692 2.2898e-19)
(1.10009 0.297215 -8.82981e-20)
(1.09738 0.272881 1.52952e-19)
(1.09552 0.250715 -1.62889e-19)
(1.09256 0.232277 -1.29514e-19)
(0.417071 0.202904 -3.80328e-20)
(0.894717 0.468097 -3.53665e-20)
(1.09833 0.559626 -2.40397e-20)
(1.14635 0.553514 3.68501e-20)
(1.14219 0.511994 1.91685e-20)
(1.12737 0.467039 -3.46685e-20)
(1.11474 0.425271 -4.72365e-20)
(1.10521 0.388218 2.16047e-19)
(1.09838 0.35498 -7.49735e-20)
(1.09352 0.325112 1.66901e-19)
(1.09019 0.298095 1.88687e-19)
(1.08821 0.273335 -2.17709e-19)
(1.08697 0.250916 -4.23382e-20)
(1.08457 0.232226 -1.04749e-19)
(0.42425 0.219544 -5.64179e-21)
(0.892976 0.490263 -7.83133e-21)
(1.0868 0.575945 4.1243e-20)
(1.12998 0.564288 1.63135e-20)
(1.12531 0.519081 -5.31265e-20)
(1.11163 0.472049 6.05451e-21)
(1.10041 0.428869 7.62703e-20)
(1.09217 0.390755 -6.62171e-20)
(1.08647 0.356697 -5.43844e-20)
(1.08259 0.326191 -3.38261e-19)
(1.08012 0.298671 7.01478e-20)
(1.07891 0.27352 -1.15504e-19)
(1.07831 0.250875 1.27323e-19)
(1.07652 0.231948 2.03891e-19)
(0.429724 0.236038 2.51033e-20)
(0.888663 0.511414 1.99961e-20)
(1.07325 0.591128 -4.6623e-20)
(1.11233 0.574105 -1.30454e-19)
(1.10765 0.525432 1.64691e-20)
(1.09532 0.47644 -3.45624e-20)
(1.08566 0.431944 1.41907e-19)
(1.0788 0.392832 4.39194e-20)
(1.07431 0.358008 9.53597e-20)
(1.07146 0.326911 1.57093e-19)
(1.0699 0.298926 -5.68252e-20)
(1.06949 0.273426 5.83744e-20)
(1.06955 0.250579 -1.59322e-19)
(1.06843 0.231434 -2.2021e-19)
(0.433473 0.252257 -2.97811e-20)
(0.881877 0.53143 -1.36017e-20)
(1.05782 0.605101 3.94588e-20)
(1.09349 0.582915 1.50158e-19)
(1.08925 0.530997 2.79249e-20)
(1.0785 0.480182 -4.59513e-20)
(1.07051 0.434461 -1.84014e-19)
(1.06512 0.394422 -3.04449e-19)
(1.0619 0.358889 -4.46845e-19)
(1.06014 0.327251 -3.15927e-20)
(1.05954 0.298846 -6.50835e-22)
(1.05995 0.273038 2.3105e-19)
(1.06071 0.250015 2.00496e-19)
(1.06031 0.230673 1.86662e-19)
(0.435491 0.268077 7.49745e-21)
(0.87273 0.550198 5.14458e-20)
(1.04062 0.617787 7.85213e-20)
(1.07355 0.590671 -6.91634e-20)
(1.07015 0.535733 9.17677e-20)
(1.06119 0.483239 6.0701e-21)
(1.055 0.436387 2.30296e-19)
(1.05116 0.395498 2.91796e-19)
(1.04928 0.35932 3.06624e-19)
(1.04866 0.327193 -3.31946e-19)
(1.04905 0.298414 -5.24764e-20)
(1.05032 0.272344 -2.07754e-19)
(1.05179 0.249171 -1.34675e-20)
(1.05216 0.229657 -1.58208e-19)
(0.435792 0.283376 2.91174e-20)
(0.861369 0.567629 -7.30594e-20)
(1.02174 0.629101 1.27614e-20)
(1.05261 0.597322 -1.00515e-19)
(1.05042 0.5396 -9.61823e-21)
(1.04344 0.485573 9.34688e-20)
(1.03915 0.437693 -3.4617e-19)
(1.03694 0.396034 -3.43277e-19)
(1.03646 0.359277 -2.08231e-20)
(1.03704 0.326719 5.94266e-19)
(1.03846 0.297617 7.31774e-20)
(1.04061 0.271333 5.48144e-20)
(1.04281 0.248035 2.46129e-20)
(1.044 0.228374 -8.60065e-21)
(0.434416 0.298031 -3.44633e-20)
(0.847982 0.583678 1.16968e-19)
(1.00125 0.638944 -1.67765e-19)
(1.03074 0.602803 8.86038e-20)
(1.03012 0.54256 -1.11773e-19)
(1.02529 0.487149 -7.88375e-21)
(1.02301 0.438347 3.2059e-22)
(1.0225 0.396006 5.79203e-20)
(1.02346 0.358743 -1.27954e-21)
(1.02529 0.325814 -1.14492e-19)
(1.02778 0.296443 -1.09639e-19)
(1.03084 0.269995 -2.33747e-19)
(1.03379 0.246597 -5.21248e-19)
(1.03585 0.226816 3.21271e-19)
(0.431426 0.311905 7.0268e-20)
(0.832717 0.598303 -1.29076e-19)
(0.97923 0.647264 1.69983e-19)
(1.00805 0.607041 3.28145e-19)
(1.00931 0.544574 -1.70461e-19)
(1.00678 0.487935 -4.02701e-19)
(1.00659 0.438324 2.3014e-19)
(1.00785 0.395391 5.05533e-20)
(1.01033 0.357697 -1.64156e-19)
(1.01344 0.324462 -3.222e-19)
(1.01704 0.294877 -2.27528e-20)
(1.02102 0.268319 1.29963e-19)
(1.02473 0.244844 -1.72985e-19)
(1.02771 0.224971 2.29574e-19)
(0.426885 0.324855 -1.31784e-22)
(0.815494 0.611291 -4.2349e-20)
(0.956024 0.654171 -3.59829e-19)
(0.984655 0.609991 -3.60054e-19)
(0.988064 0.545602 3.95038e-19)
(0.98797 0.487901 5.97075e-19)
(0.989951 0.437598 1.85732e-19)
(0.993034 0.394169 2.35991e-19)
(0.997067 0.356124 -6.74187e-20)
(1.00151 0.322647 1.38982e-19)
(1.00626 0.292909 9.31069e-20)
(1.01117 0.266296 1.76527e-20)
(1.01566 0.24276 2.06364e-19)
(1.01961 0.222815 -4.67933e-19)
(0.420826 0.336812 -6.5806e-20)
(0.796335 0.62243 -3.16233e-20)
(0.931822 0.659614 4.36375e-19)
(0.960639 0.611677 3.66491e-20)
(0.966432 0.545614 -2.73864e-19)
(0.968891 0.48702 -1.04695e-19)
(0.973117 0.436145 2.96852e-19)
(0.978082 0.39232 -1.04962e-19)
(0.983716 0.354007 2.21748e-19)
(0.989524 0.320358 2.16602e-19)
(0.995456 0.29053 -5.36732e-20)
(1.00131 0.263917 7.56978e-20)
(1.00658 0.24033 4.03032e-19)
(1.01156 0.220321 -5.30003e-20)
(0.413317 0.347716 -1.96454e-19)
(0.775536 0.631724 1.59178e-19)
(0.906657 0.663461 -2.39019e-19)
(0.936084 0.612074 5.37038e-20)
(0.944482 0.544581 -1.01934e-19)
(0.949598 0.485266 -4.62069e-19)
(0.956131 0.433945 -2.60576e-19)
(0.963027 0.389827 1.06253e-19)
(0.970301 0.351332 1.96907e-19)
(0.977513 0.317584 -5.90123e-20)
(0.98465 0.28773 5.89265e-21)
(0.991447 0.261175 1.04128e-20)
(0.997524 0.237545 2.72062e-20)
(1.00361 0.21749 7.78892e-19)
(0.404412 0.357478 3.52929e-20)
(0.753307 0.639153 -1.98771e-19)
(0.88064 0.665649 -2.80097e-19)
(0.911079 0.611159 1.99708e-19)
(0.922277 0.542479 4.10823e-19)
(0.930139 0.482617 4.25529e-20)
(0.939036 0.430981 -1.27528e-19)
(0.947903 0.386677 -1.73609e-20)
(0.956853 0.348087 -1.57119e-19)
(0.965499 0.314312 1.13512e-19)
(0.973859 0.2845 1.06452e-19)
(0.981599 0.258057 -1.53467e-19)
(0.98855 0.234402 -1.90763e-19)
(0.995992 0.214378 1.06483e-19)
(0.394174 0.365981 -1.38207e-19)
(0.729828 0.644671 1.99453e-19)
(0.853887 0.666142 6.05005e-19)
(0.885714 0.608905 -1.01981e-19)
(0.899884 0.539286 -2.36895e-19)
(0.910566 0.479052 5.13404e-19)
(0.921874 0.427236 -2.07381e-19)
(0.932748 0.382855 -2.22434e-20)
(0.943402 0.344261 -5.14647e-19)
(0.953507 0.310537 -1.98751e-19)
(0.963095 0.28083 -1.23105e-19)
(0.971779 0.254541 -3.19475e-19)
(0.979785 0.230872 -2.06686e-19)
(0.988946 0.211025 -5.97595e-19)
(0.382721 0.373155 -2.73518e-20)
(0.705249 0.648224 3.20206e-19)
(0.826524 0.664915 -6.20775e-19)
(0.860079 0.60529 2.79135e-19)
(0.877368 0.534983 8.29318e-20)
(0.890933 0.474556 -7.80833e-19)
(0.904689 0.422696 7.77952e-20)
(0.917598 0.378351 -3.45097e-19)
(0.92998 0.339848 3.32821e-19)
(0.94156 0.306252 -4.957e-21)
(0.952371 0.276715 2.03059e-19)
(0.96203 0.250613 6.99032e-19)
(0.971337 0.226885 -4.44819e-19)
(0.98224 0.207227 4.76916e-20)
(0.370176 0.378939 3.99078e-19)
(0.67972 0.64977 -3.06739e-19)
(0.798676 0.661947 6.99731e-19)
(0.834265 0.600298 -7.72897e-19)
(0.854797 0.529557 -9.62732e-20)
(0.871292 0.469116 -3.74862e-20)
(0.887525 0.417353 5.85863e-19)
(0.902492 0.373159 4.85967e-19)
(0.916619 0.33484 -3.78026e-19)
(0.929681 0.301455 -9.72408e-21)
(0.941711 0.272155 -2.33858e-19)
(0.952415 0.246294 -6.12424e-19)
(0.963202 0.2225 3.03929e-19)
(0.975032 0.201679 -5.4589e-20)
(0.356654 0.38328 -3.31985e-19)
(0.653395 0.649275 -2.84073e-19)
(0.770471 0.657223 -8.26392e-19)
(0.808364 0.593916 1.94532e-19)
(0.832238 0.522996 -1.8628e-19)
(0.851699 0.462721 1.9374e-19)
(0.870429 0.411198 -4.99171e-19)
(0.887467 0.367271 3.34567e-20)
(0.90335 0.329235 1.45325e-20)
(0.917896 0.296142 -4.77277e-19)
(0.931155 0.267145 3.02931e-19)
(0.942983 0.241597 3.59693e-19)
(0.95506 0.218143 1.65502e-19)
(0.966896 0.197475 6.51838e-19)
(0.342274 0.386132 3.96263e-19)
(0.626428 0.64672 7.95424e-19)
(0.742036 0.650737 3.7943e-19)
(0.782465 0.586135 1.6638e-19)
(0.809761 0.515292 4.57336e-19)
(0.832209 0.455366 6.81183e-19)
(0.853448 0.404227 1.41585e-19)
(0.872563 0.360685 9.52611e-20)
(0.890207 0.323029 7.80955e-19)
(0.906235 0.29031 -1.8372e-19)
(0.920737 0.261678 2.21741e-21)
(0.93373 0.236466 -3.60605e-19)
(0.946938 0.213292 2.81135e-19)
(0.958956 0.192672 6.4189e-21)
(0.327157 0.387457 5.1878e-19)
(0.598976 0.642091 -2.54307e-19)
(0.713496 0.642487 4.35584e-19)
(0.756661 0.576954 -8.62455e-20)
(0.787434 0.506442 3.68173e-20)
(0.81288 0.447048 -1.48362e-19)
(0.836627 0.396438 3.47673e-19)
(0.85782 0.3534 -8.68866e-21)
(0.877221 0.316223 -3.14193e-19)
(0.894725 0.283962 5.95562e-19)
(0.910478 0.255763 -2.75165e-19)
(0.924633 0.23095 1.9956e-19)
(0.938837 0.208162 -3.27348e-20)
(0.951175 0.187875 -8.06496e-19)
(0.311424 0.387229 -2.92839e-19)
(0.571191 0.635384 -5.97502e-19)
(0.684975 0.632479 -3.69103e-19)
(0.731042 0.566375 5.72005e-19)
(0.765327 0.496447 -5.72849e-20)
(0.793767 0.437767 1.89632e-19)
(0.820014 0.387833 -4.04482e-19)
(0.843278 0.345418 -6.26604e-19)
(0.864425 0.30882 3.25001e-19)
(0.883396 0.277097 -1.52463e-19)
(0.900404 0.249398 3.99913e-19)
(0.915702 0.225036 7.253e-21)
(0.930822 0.202682 -4.90255e-19)
(0.943604 0.182819 2.90706e-20)
(0.295198 0.385429 -5.55214e-19)
(0.543228 0.626604 2.00136e-19)
(0.656596 0.620724 -4.14131e-19)
(0.705699 0.554405 -4.56083e-19)
(0.74351 0.485313 -1.75103e-19)
(0.774927 0.427528 1.48654e-19)
(0.803657 0.378416 -4.33697e-19)
(0.828975 0.336743 4.17102e-19)
(0.851854 0.300823 -5.71596e-19)
(0.872279 0.269722 3.83276e-19)
(0.890535 0.242591 3.87908e-19)
(0.906951 0.218737 -1.27049e-19)
(0.922942 0.19689 5.03e-19)
(0.936258 0.177527 5.70274e-19)
(0.278603 0.382048 1.40648e-19)
(0.515237 0.615766 4.78656e-20)
(0.628479 0.607241 7.24872e-19)
(0.680718 0.541058 5.65683e-19)
(0.72205 0.473048 2.71811e-19)
(0.756417 0.41634 -1.63969e-19)
(0.787604 0.368194 -3.13797e-19)
(0.814951 0.327383 -1.93172e-19)
(0.839541 0.292239 2.26796e-19)
(0.861402 0.261842 -7.28307e-19)
(0.880892 0.235345 -3.59325e-19)
(0.898398 0.21206 -2.46998e-19)
(0.915231 0.19078 1.45283e-19)
(0.929143 0.171969 -8.79168e-19)
(0.26176 0.377086 5.95466e-20)
(0.487366 0.602892 -1.39658e-19)
(0.600742 0.592053 4.77837e-21)
(0.656189 0.526351 -7.69432e-19)
(0.701018 0.459668 -2.32831e-19)
(0.738294 0.404213 -4.64784e-19)
(0.7719 0.357179 1.01452e-19)
(0.801246 0.317346 -2.46926e-19)
(0.827519 0.283076 -1.54513e-19)
(0.850793 0.253463 2.80836e-19)
(0.871498 0.227669 -3.3869e-19)
(0.890065 0.205012 -1.10274e-19)
(0.907717 0.18436 -6.02416e-20)
(0.922267 0.166139 9.37769e-19)
(0.244792 0.370551 1.43158e-20)
(0.459763 0.588014 -1.42466e-19)
(0.573499 0.575191 1.9797e-19)
(0.632197 0.510309 2.43939e-19)
(0.680479 0.445189 4.57497e-20)
(0.720612 0.391164 8.00828e-19)
(0.756592 0.345383 -2.47747e-19)
(0.787898 0.306645 6.36218e-19)
(0.81582 0.273346 1.63098e-19)
(0.84048 0.244596 -4.88903e-19)
(0.862376 0.219572 3.58614e-19)
(0.881974 0.197602 6.79491e-19)
(0.900425 0.177631 -3.545e-19)
(0.915636 0.160033 -6.83867e-19)
(0.227817 0.362459 1.66223e-19)
(0.432569 0.571172 -3.2507e-19)
(0.546863 0.556692 -1.20619e-18)
(0.608825 0.49296 -3.0614e-19)
(0.660502 0.429635 3.82432e-19)
(0.703428 0.377212 -5.3898e-21)
(0.741726 0.332823 2.75946e-19)
(0.774946 0.295294 -4.15713e-19)
(0.804478 0.263059 -6.26977e-19)
(0.830489 0.235252 4.70606e-19)
(0.853548 0.211063 4.85631e-20)
(0.874146 0.189839 -2.93353e-20)
(0.893374 0.170598 3.41598e-19)
(0.909259 0.153653 3.71005e-19)
(0.210955 0.352834 -4.80063e-19)
(0.405924 0.552413 2.60705e-19)
(0.520941 0.5366 2.97939e-19)
(0.586156 0.474336 7.54067e-20)
(0.64115 0.413033 7.99342e-20)
(0.686794 0.362379 -5.32988e-19)
(0.727348 0.319519 -1.09202e-19)
(0.762428 0.28331 -1.35619e-19)
(0.793523 0.252231 8.25534e-19)
(0.820848 0.225443 1.27559e-19)
(0.845036 0.202153 2.5929e-20)
(0.866602 0.181733 -5.90477e-19)
(0.886583 0.163269 8.19902e-20)
(0.903145 0.147006 -2.09317e-19)
(0.19432 0.34171 2.51522e-19)
(0.37996 0.531793 1.11908e-18)
(0.495839 0.514963 5.78812e-19)
(0.564269 0.454476 6.86167e-19)
(0.622487 0.395412 -7.14731e-19)
(0.670763 0.34669 1.47538e-19)
(0.7135 0.305493 2.77875e-20)
(0.750379 0.270712 8.43091e-19)
(0.782986 0.240879 -8.99301e-19)
(0.811583 0.215184 -4.57868e-19)
(0.836862 0.192856 -2.9002e-19)
(0.85936 0.173293 -2.30088e-19)
(0.880068 0.15565 -4.16399e-19)
(0.897305 0.140099 2.84754e-19)
(0.178026 0.329127 -2.76553e-20)
(0.354808 0.509374 -4.30174e-19)
(0.471658 0.491837 1.86532e-19)
(0.54324 0.433423 -6.40712e-22)
(0.604574 0.376808 2.30407e-19)
(0.655386 0.330176 1.45852e-21)
(0.700225 0.290769 2.05789e-19)
(0.738836 0.257521 1.25961e-19)
(0.772898 0.229022 8.41254e-19)
(0.802718 0.204491 7.98402e-19)
(0.829047 0.183185 3.31792e-19)
(0.85244 0.164532 5.80278e-19)
(0.873846 0.14775 2.20837e-19)
(0.891748 0.132941 4.69907e-20)
(0.162179 0.315133 2.84252e-19)
(0.33059 0.485227 -4.00072e-20)
(0.448492 0.46728 -1.62375e-19)
(0.523144 0.411225 -1.83463e-19)
(0.587472 0.357259 6.14979e-19)
(0.640713 0.312869 9.33707e-20)
(0.687564 0.275375 6.08536e-20)
(0.727833 0.243761 -6.65163e-19)
(0.763287 0.216678 3.27969e-19)
(0.794277 0.193381 -2.77872e-19)
(0.821611 0.173156 9.25962e-20)
(0.845859 0.155463 -6.33159e-19)
(0.867931 0.13958 1.77995e-19)
(0.886484 0.125543 8.68925e-20)
(0.146885 0.299785 6.28863e-20)
(0.307425 0.459429 -1.60527e-19)
(0.426436 0.44136 -4.78479e-19)
(0.50405 0.387933 6.99756e-19)
(0.571235 0.336807 -1.01192e-18)
(0.62679 0.294803 -3.11965e-19)
(0.675557 0.259343 -4.85719e-19)
(0.717403 0.229458 5.31237e-19)
(0.754181 0.203871 -5.55537e-19)
(0.786283 0.181874 -6.08869e-19)
(0.814575 0.162785 3.37728e-19)
(0.839633 0.146099 1.22634e-19)
(0.862337 0.131151 -1.60967e-19)
(0.881523 0.117917 -1.48739e-19)
(0.132242 0.283143 -6.527e-19)
(0.285425 0.432062 -3.40007e-19)
(0.405575 0.414147 1.44046e-19)
(0.486026 0.363603 -3.44486e-19)
(0.55592 0.315499 3.04011e-19)
(0.613663 0.276019 3.95603e-19)
(0.664241 0.242703 2.14227e-19)
(0.707578 0.21464 -1.26184e-19)
(0.745606 0.190625 -5.17779e-19)
(0.77876 0.16999 2.30001e-19)
(0.807955 0.15209 2.15064e-19)
(0.833777 0.136456 2.83204e-19)
(0.85708 0.122476 6.27179e-20)
(0.876874 0.110075 -2.80385e-19)
(0.118345 0.265278 9.27818e-20)
(0.264694 0.403218 3.17657e-19)
(0.385991 0.385715 4.36713e-19)
(0.469135 0.338295 -7.7097e-19)
(0.541577 0.293383 -6.46607e-19)
(0.601375 0.256557 -3.44273e-19)
(0.653653 0.225493 -5.88386e-19)
(0.698388 0.199338 2.74437e-19)
(0.737589 0.176965 7.03873e-19)
(0.771728 0.157751 3.58509e-19)
(0.80177 0.14109 -3.72531e-19)
(0.828308 0.126549 -3.56989e-19)
(0.85217 0.11357 2.96772e-19)
(0.872545 0.102031 2.0496e-19)
(0.105281 0.246264 -3.9281e-19)
(0.245333 0.37299 3.29193e-19)
(0.367762 0.356146 -2.60622e-19)
(0.453436 0.312072 4.64951e-19)
(0.528254 0.270512 2.94455e-21)
(0.589965 0.236462 3.33522e-19)
(0.643825 0.207748 2.91878e-19)
(0.689861 0.183582 -3.25842e-19)
(0.730151 0.162919 -3.6706e-19)