/*--------------------------------*- C++ -*----------------------------------*\
  =========                 |
  \\      /  F ield         | OpenFOAM: The Open Source CFD Toolbox
   \\    /   O peration     | Website:  https://openfoam.org
    \\  /    A nd           | Version:  7
     \\/     M anipulation  |
\*---------------------------------------------------------------------------*/
FoamFile
{
    version     2.0;
    format      ascii;
    class       volScalarField;
    location    "10";
    object      p;
}
// * * * * * * * * * * * * * * * * * * * * * * * * * * * * * * * * * * * * * //

dimensions      [0 2 -2 0 0 0 0];

internalField   nonuniform List<scalar> 
8330
(
-0.302128
-0.306683
-0.307912
-0.310274
-0.312757
-0.315903
-0.319605
-0.323925
-0.328883
-0.334466
-0.340765
-0.347569
-0.355424
-0.362604
-0.302335
-0.306837
-0.30806
-0.31041
-0.312887
-0.316027
-0.319725
-0.324041
-0.329
-0.33458
-0.340896
-0.347678
-0.355616
-0.362601
-0.302744
-0.307142
-0.308351
-0.310677
-0.313141
-0.316269
-0.319958
-0.324265
-0.329223
-0.334794
-0.341145
-0.347873
-0.355986
-0.362574
-0.303347
-0.307591
-0.308778
-0.311067
-0.313509
-0.316616
-0.320288
-0.324579
-0.329531
-0.335081
-0.341484
-0.348103
-0.356505
-0.362479
-0.30413
-0.308174
-0.30933
-0.311567
-0.313977
-0.317051
-0.320695
-0.324957
-0.329897
-0.335404
-0.341879
-0.3483
-0.357132
-0.362259
-0.305075
-0.308877
-0.309992
-0.312161
-0.314525
-0.317552
-0.321154
-0.325369
-0.330284
-0.335715
-0.342289
-0.348385
-0.357815
-0.361848
-0.306162
-0.309688
-0.310749
-0.312831
-0.315132
-0.318094
-0.321635
-0.325782
-0.330656
-0.335964
-0.342671
-0.348283
-0.358497
-0.361169
-0.307371
-0.310589
-0.311583
-0.313557
-0.315775
-0.31865
-0.322107
-0.326158
-0.330975
-0.336102
-0.342988
-0.347919
-0.359132
-0.36012
-0.308677
-0.311566
-0.312475
-0.314319
-0.316431
-0.319194
-0.322542
-0.326465
-0.331205
-0.336081
-0.343204
-0.347209
-0.359674
-0.358687
-0.310059
-0.312601
-0.313409
-0.315099
-0.317079
-0.319701
-0.322911
-0.326671
-0.331316
-0.33586
-0.343287
-0.346123
-0.359862
-0.357271
-0.311494
-0.31368
-0.314369
-0.315878
-0.317697
-0.320148
-0.323191
-0.326752
-0.331287
-0.335412
-0.343146
-0.345149
-0.35933
-0.355613
-0.312962
-0.31479
-0.315338
-0.316641
-0.31827
-0.320517
-0.323362
-0.326689
-0.331104
-0.334811
-0.342648
-0.343866
-0.358668
-0.353576
-0.314446
-0.315919
-0.316307
-0.317376
-0.318783
-0.320795
-0.323413
-0.326476
-0.330695
-0.334051
-0.341958
-0.342205
-0.357874
-0.351218
-0.31593
-0.317058
-0.317264
-0.318073
-0.319227
-0.320974
-0.323337
-0.326119
-0.330119
-0.333071
-0.341109
-0.340262
-0.356887
-0.348635
-0.317405
-0.3182
-0.318205
-0.318728
-0.3196
-0.321053
-0.323134
-0.325617
-0.329392
-0.331908
-0.340083
-0.338131
-0.355656
-0.345943
-0.318863
-0.319344
-0.319125
-0.319338
-0.319901
-0.321036
-0.322816
-0.324985
-0.328523
-0.330615
-0.338869
-0.335906
-0.354097
-0.343279
-0.320303
-0.320488
-0.320025
-0.319907
-0.320137
-0.320933
-0.322396
-0.324246
-0.32753
-0.32924
-0.337453
-0.333696
-0.352066
-0.340759
-0.321729
-0.321628
-0.320913
-0.320441
-0.320317
-0.320759
-0.321893
-0.32343
-0.326438
-0.327835
-0.335823
-0.331599
-0.349399
-0.338392
-0.323146
-0.322776
-0.321793
-0.320949
-0.320456
-0.320533
-0.321333
-0.322566
-0.325273
-0.326433
-0.333966
-0.329669
-0.345993
-0.336012
-0.324564
-0.323941
-0.322672
-0.321445
-0.320571
-0.320278
-0.320741
-0.321683
-0.324063
-0.325049
-0.331885
-0.327873
-0.341875
-0.333305
-0.325999
-0.325133
-0.323564
-0.321944
-0.320682
-0.320018
-0.320144
-0.320808
-0.322833
-0.323674
-0.329595
-0.326085
-0.337204
-0.329954
-0.326363
-0.324485
-0.322464
-0.320811
-0.31978
-0.31957
-0.31996
-0.321605
-0.322278
-0.327113
-0.324121
-0.332186
-0.325781
-0.327646
-0.32545
-0.323025
-0.320982
-0.319587
-0.319043
-0.319151
-0.320383
-0.320824
-0.324447
-0.321807
-0.326971
-0.320792
-0.329002
-0.326479
-0.323646
-0.321216
-0.319463
-0.318582
-0.318386
-0.31916
-0.31927
-0.321588
-0.319033
-0.321603
-0.315127
-0.330447
-0.327591
-0.324348
-0.321537
-0.319429
-0.318202
-0.317662
-0.317914
-0.317578
-0.318508
-0.315761
-0.316038
-0.308982
-0.328805
-0.325151
-0.321963
-0.319499
-0.317906
-0.316969
-0.316614
-0.315706
-0.315183
-0.312003
-0.310153
-0.302574
-0.330142
-0.326075
-0.322513
-0.319683
-0.317693
-0.316291
-0.315231
-0.313613
-0.311609
-0.307793
-0.303811
-0.296115
-0.331619
-0.327135
-0.3232
-0.319985
-0.317552
-0.315608
-0.31374
-0.311266
-0.307804
-0.30318
-0.297063
-0.289706
-0.333256
-0.328349
-0.324033
-0.320402
-0.31747
-0.314896
-0.312113
-0.308644
-0.30379
-0.298217
-0.290395
-0.283094
-0.329729
-0.325016
-0.320928
-0.317431
-0.314127
-0.310324
-0.305745
-0.299584
-0.292967
-0.284049
-0.27613
-0.331286
-0.326149
-0.321552
-0.317418
-0.313269
-0.308352
-0.302583
-0.295197
-0.287567
-0.277763
-0.269196
-0.327428
-0.322265
-0.31741
-0.312292
-0.306179
-0.299179
-0.290659
-0.282065
-0.271558
-0.262442
-0.328847
-0.323059
-0.31738
-0.311165
-0.303795
-0.295561
-0.285994
-0.276518
-0.265419
-0.255815
-0.330404
-0.323922
-0.317294
-0.309863
-0.301201
-0.291757
-0.281226
-0.270951
-0.259342
-0.249335
-0.324832
-0.317116
-0.308366
-0.298401
-0.287793
-0.276376
-0.265381
-0.253327
-0.242968
-0.325762
-0.316809
-0.306665
-0.295406
-0.28369
-0.271461
-0.259814
-0.247366
-0.2367
-0.316342
-0.304753
-0.292224
-0.279464
-0.266489
-0.254251
-0.241453
-0.230511
-0.302628
-0.288868
-0.275127
-0.261467
-0.248687
-0.235576
-0.224384
-0.30029
-0.285345
-0.270686
-0.256393
-0.243115
-0.229724
-0.218301
-0.281661
-0.266143
-0.251264
-0.237526
-0.223884
-0.212248
-0.261496
-0.246074
-0.231908
-0.218042
-0.206207
-0.240813
-0.22625
-0.212185
-0.200166
-0.220541
-0.206299
-0.194109
-0.200372
-0.188025
-0.1819
-0.181897
-0.214764
-0.200369
-0.188022
-0.23547
-0.220539
-0.206297
-0.194107
-0.240812
-0.226249
-0.212183
-0.200164
-0.261496
-0.246073
-0.231907
-0.218041
-0.206206
-0.281661
-0.266143
-0.251264
-0.237525
-0.223884
-0.212247
-0.300291
-0.285346
-0.270687
-0.256393
-0.243115
-0.229725
-0.218301
-0.30263
-0.28887
-0.275128
-0.261468
-0.248688
-0.235577
-0.224384
-0.316345
-0.304755
-0.292227
-0.279466
-0.266491
-0.254252
-0.241455
-0.230512
-0.325766
-0.316813
-0.306668
-0.295408
-0.283693
-0.271463
-0.259817
-0.247369
-0.236702
-0.324836
-0.31712
-0.30837
-0.298405
-0.287797
-0.27638
-0.265384
-0.25333
-0.242971
-0.330408
-0.323926
-0.317298
-0.309867
-0.301205
-0.291762
-0.28123
-0.270955
-0.259346
-0.249339
-0.328851
-0.323063
-0.317384
-0.311169
-0.3038
-0.295566
-0.285999
-0.276523
-0.265424
-0.25582
-0.333031
-0.327432
-0.322269
-0.317414
-0.312297
-0.306184
-0.299184
-0.290666
-0.282072
-0.271564
-0.262448
-0.33129
-0.326153
-0.321555
-0.317422
-0.313274
-0.308358
-0.302589
-0.295205
-0.287574
-0.277771
-0.269203
-0.329733
-0.325019
-0.320931
-0.317435
-0.314132
-0.310331
-0.305753
-0.299592
-0.292976
-0.284058
-0.276138
-0.333261
-0.328353
-0.324036
-0.320406
-0.317474
-0.314902
-0.31212
-0.308652
-0.3038
-0.298228
-0.290406
-0.283104
-0.331624
-0.32714
-0.323203
-0.319989
-0.317557
-0.315614
-0.313747
-0.311275
-0.307814
-0.303192
-0.297075
-0.289717
-0.330147
-0.326079
-0.322517
-0.319687
-0.317698
-0.316297
-0.315239
-0.313623
-0.311621
-0.307807
-0.303825
-0.296129
-0.332005
-0.32881
-0.325156
-0.321967
-0.319503
-0.317911
-0.316975
-0.316622
-0.315717
-0.315196
-0.312018
-0.310169
-0.30259
-0.330453
-0.327596
-0.324352
-0.321541
-0.319433
-0.318207
-0.317668
-0.317923
-0.31759
-0.318522
-0.315778
-0.316055
-0.309
-0.329007
-0.326484
-0.32365
-0.32122
-0.319468
-0.318588
-0.318393
-0.31917
-0.319283
-0.321603
-0.319051
-0.321622
-0.315147
-0.327652
-0.325455
-0.32303
-0.320986
-0.319592
-0.319049
-0.319159
-0.320393
-0.320837
-0.324464
-0.321826
-0.326991
-0.320814
-0.326369
-0.32449
-0.322469
-0.320816
-0.319785
-0.319576
-0.319968
-0.321615
-0.322292
-0.32713
-0.324141
-0.332208
-0.325805
-0.326005
-0.325139
-0.323569
-0.321949
-0.320686
-0.320023
-0.320151
-0.320816
-0.322844
-0.323688
-0.329612
-0.326106
-0.337227
-0.329981
-0.32457
-0.323947
-0.322677
-0.32145
-0.320576
-0.320283
-0.320748
-0.321692
-0.324074
-0.325064
-0.331903
-0.327895
-0.3419
-0.333333
-0.323153
-0.322781
-0.321798
-0.320954
-0.320461
-0.320539
-0.32134
-0.322575
-0.325285
-0.326448
-0.333985
-0.329691
-0.346019
-0.336041
-0.321736
-0.321634
-0.320919
-0.320446
-0.320322
-0.320765
-0.321901
-0.323439
-0.32645
-0.32785
-0.335842
-0.331622
-0.349426
-0.338422
-0.32031
-0.320494
-0.32003
-0.319912
-0.320142
-0.320939
-0.322403
-0.324256
-0.327543
-0.329256
-0.337473
-0.333719
-0.352093
-0.34079
-0.31887
-0.319349
-0.31913
-0.319343
-0.319907
-0.321043
-0.322824
-0.324995
-0.328536
-0.330631
-0.338889
-0.33593
-0.354125
-0.34331
-0.317411
-0.318206
-0.31821
-0.318733
-0.319606
-0.32106
-0.323142
-0.325627
-0.329405
-0.331924
-0.340103
-0.338154
-0.355685
-0.345974
-0.315936
-0.317063
-0.317269
-0.318078
-0.319233
-0.320981
-0.323345
-0.32613
-0.330132
-0.333087
-0.341129
-0.340285
-0.356916
-0.348666
-0.314452
-0.315924
-0.316312
-0.317381
-0.318788
-0.320801
-0.323421
-0.326486
-0.330708
-0.334067
-0.341978
-0.342228
-0.357902
-0.351249
-0.312968
-0.314795
-0.315343
-0.316646
-0.318275
-0.320523
-0.32337
-0.326699
-0.331116
-0.334826
-0.342667
-0.343888
-0.358695
-0.353607
-0.311499
-0.313685
-0.314373
-0.315883
-0.317703
-0.320154
-0.323198
-0.326761
-0.331299
-0.335426
-0.343165
-0.345171
-0.359357
-0.355643
-0.310064
-0.312606
-0.313414
-0.315103
-0.317084
-0.319707
-0.322918
-0.32668
-0.331327
-0.335874
-0.343305
-0.346143
-0.359888
-0.3573
-0.308682
-0.31157
-0.312479
-0.314323
-0.316436
-0.3192
-0.322549
-0.326473
-0.331215
-0.336095
-0.343221
-0.347228
-0.359698
-0.358714
-0.307375
-0.310593
-0.311586
-0.31356
-0.315779
-0.318655
-0.322114
-0.326166
-0.330985
-0.336114
-0.343003
-0.347937
-0.359155
-0.360145
-0.306166
-0.309691
-0.310752
-0.312834
-0.315135
-0.318099
-0.32164
-0.325789
-0.330665
-0.335975
-0.342685
-0.348299
-0.358517
-0.361191
-0.305078
-0.30888
-0.309995
-0.312164
-0.314528
-0.317556
-0.321159
-0.325376
-0.330292
-0.335724
-0.342301
-0.3484
-0.357832
-0.361868
-0.304132
-0.308176
-0.309332
-0.311569
-0.313979
-0.317055
-0.320699
-0.324962
-0.329903
-0.335412
-0.341889
-0.348312
-0.357147
-0.362276
-0.303349
-0.307593
-0.30878
-0.311069
-0.313511
-0.316619
-0.320291
-0.324583
-0.329537
-0.335088
-0.341492
-0.348113
-0.356517
-0.362492
-0.302746
-0.307144
-0.308353
-0.310679
-0.313142
-0.316271
-0.31996
-0.324268
-0.329226
-0.334799
-0.341151
-0.34788
-0.355995
-0.362584
-0.302336
-0.306838
-0.308061
-0.310411
-0.312888
-0.316028
-0.319726
-0.324043
-0.329002
-0.334583
-0.3409
-0.347683
-0.355621
-0.362607
-0.302128
-0.306683
-0.307913
-0.310275
-0.312757
-0.315903
-0.319606
-0.323926
-0.328884
-0.334467
-0.340767
-0.34757
-0.355426
-0.362606
-0.368346
-0.370806
-0.373273
-0.375743
-0.378192
-0.380588
-0.3829
-0.385086
-0.387101
-0.388891
-0.390396
-0.391545
-0.392263
-0.392461
-0.392042
-0.390895
-0.388892
-0.385903
-0.38184
-0.376544
-0.369876
-0.361694
-0.351866
-0.340267
-0.326795
-0.311374
-0.293966
-0.274586
-0.25331
-0.230291
-0.205767
-0.180075
-0.153639
-0.127013
-0.100797
-0.075596
-0.0525523
-0.0309017
-0.0154503
0.00231123
0.00165665
0.0200075
-0.368657
-0.371136
-0.373614
-0.376104
-0.378573
-0.380992
-0.383327
-0.385537
-0.387578
-0.389395
-0.390927
-0.392105
-0.392852
-0.393081
-0.392694
-0.391578
-0.389608
-0.386658
-0.382624
-0.377359
-0.37072
-0.362567
-0.352765
-0.34119
-0.327739
-0.312333
-0.294934
-0.275558
-0.254279
-0.231249
-0.206706
-0.180989
-0.154518
-0.127854
-0.1016
-0.0763503
-0.053244
-0.0316136
-0.0160482
0.00166475
0.00125423
0.0194357
-0.369226
-0.371744
-0.374243
-0.376769
-0.379279
-0.38174
-0.38412
-0.386378
-0.388468
-0.390337
-0.391923
-0.393157
-0.393961
-0.394249
-0.393923
-0.392869
-0.390962
-0.388083
-0.384111
-0.378907
-0.372328
-0.364231
-0.354482
-0.342954
-0.329543
-0.314169
-0.296791
-0.277424
-0.256142
-0.233093
-0.208516
-0.182754
-0.156216
-0.129486
-0.103163
-0.0778117
-0.0546139
-0.0329705
-0.0172214
0.000419891
0.000484552
0.01834
-0.369957
-0.372534
-0.375056
-0.377632
-0.380198
-0.38272
-0.385163
-0.387488
-0.389649
-0.391593
-0.393256
-0.39457
-0.395457
-0.395831
-0.395593
-0.394629
-0.392812
-0.390033
-0.386153
-0.38104
-0.374549
-0.366537
-0.356866
-0.34541
-0.332061
-0.316737
-0.299393
-0.280045
-0.258764
-0.235696
-0.211077
-0.185259
-0.158634
-0.131817
-0.105411
-0.0798988
-0.0565969
-0.0348986
-0.0189225
-0.00134452
-0.000592428
0.0168062
-0.370725
-0.37338
-0.375922
-0.378553
-0.381189
-0.383784
-0.386306
-0.388715
-0.390964
-0.393
-0.394761
-0.396176
-0.397168
-0.397649
-0.397524
-0.396676
-0.394976
-0.39232
-0.388559
-0.383564
-0.377188
-0.369288
-0.359722
-0.348363
-0.3351
-0.319848
-0.302554
-0.283241
-0.261971
-0.238893
-0.214235
-0.18837
-0.161628
-0.134718
-0.108158
-0.0825773
-0.0591102
-0.0373137
-0.0210788
-0.00353496
-0.001905
0.014945
-0.371406
-0.374153
-0.376701
-0.379386
-0.382097
-0.384774
-0.387383
-0.389887
-0.392237
-0.39438
-0.396254
-0.397788
-0.398903
-0.39951
-0.399516
-0.398802
-0.397238
-0.39473
-0.391117
-0.386267
-0.380033
-0.372269
-0.362835
-0.351598
-0.338445
-0.323291
-0.306071
-0.286813
-0.265573
-0.242503
-0.217817
-0.191943
-0.165008
-0.138043
-0.111371
-0.0856732
-0.0620459
-0.040122
-0.023601
-0.00605553
-0.00338338
0.0128752
-0.371895
-0.374728
-0.377263
-0.379992
-0.382777
-0.385536
-0.388238
-0.390842
-0.393302
-0.395561
-0.397559
-0.399224
-0.400476
-0.401226
-0.401378
-0.400814
-0.399387
-0.397066
-0.393624
-0.38894
-0.382872
-0.37527
-0.365993
-0.354904
-0.341888
-0.326866
-0.309733
-0.290565
-0.269384
-0.246332
-0.221605
-0.195668
-0.168772
-0.141679
-0.114893
-0.0890761
-0.0652954
-0.0432271
-0.0263937
-0.00881429
-0.00496809
0.010709
-0.37219
-0.375007
-0.377501
-0.380263
-0.383111
-0.385948
-0.388738
-0.391444
-0.394015
-0.396395
-0.398523
-0.400327
-0.401726
-0.40263
-0.402942
-0.402555
-0.401361
-0.399164
-0.395897
-0.391397
-0.385515
-0.378099
-0.369004
-0.358092
-0.345247
-0.330402
-0.313303
-0.294276
-0.273178
-0.250186
-0.225511
-0.199545
-0.17264
-0.145472
-0.118596
-0.0926746
-0.0687508
-0.0465342
-0.029363
-0.0117258
-0.00661212
0.00854089
-0.372499
-0.374938
-0.377365
-0.380137
-0.383025
-0.385923
-0.388792
-0.391593
-0.394272
-0.396774
-0.399032
-0.400976
-0.402523
-0.403585
-0.404063
-0.403852
-0.402834
-0.400838
-0.397769
-0.393471
-0.387792
-0.38058
-0.371686
-0.360968
-0.348304
-0.333604
-0.316756
-0.297837
-0.276848
-0.253941
-0.229329
-0.203388
-0.176494
-0.149297
-0.122361
-0.0963602
-0.0723091
-0.0499532
-0.0324219
-0.0147119
-0.00827898
0.00644248
-0.371252
-0.374388
-0.376798
-0.37953
-0.382452
-0.385406
-0.388342
-0.391224
-0.393999
-0.39661
-0.398992
-0.401072
-0.402769
-0.403992
-0.404641
-0.404607
-0.403776
-0.401989
-0.399128
-0.395044
-0.389584
-0.382593
-0.37392
-0.363422
-0.350969
-0.336463
-0.319821
-0.301066
-0.280226
-0.257445
-0.232933
-0.207063
-0.180219
-0.153036
-0.126081
-0.100033
-0.0758757
-0.0534006
-0.0354936
-0.0177027
-0.00993955
0.00446229
-0.369926
-0.373376
-0.37577
-0.378464
-0.381405
-0.384397
-0.387382
-0.390327
-0.393183
-0.39589
-0.398383
-0.400588
-0.402424
-0.403799
-0.404612
-0.404755
-0.404112
-0.402532
-0.399884
-0.396021
-0.390788
-0.38403
-0.375593
-0.365329
-0.353109
-0.338827
-0.322406
-0.303851
-0.283196
-0.26058
-0.23621
-0.210459
-0.183708
-0.156588
-0.129659
-0.103605
-0.0793668
-0.0568012
-0.0385124
-0.0206375
-0.0115695
0.00262858
-0.36818
-0.371884
-0.374297
-0.376956
-0.379898
-0.382911
-0.385924
-0.388911
-0.391826
-0.394609
-0.397194
-0.399508
-0.401467
-0.40298
-0.403947
-0.404263
-0.403801
-0.402421
-0.399984
-0.396341
-0.391339
-0.384819
-0.376625
-0.366609
-0.354637
-0.3406
-0.324423
-0.306099
-0.285661
-0.263251
-0.239066
-0.213483
-0.186873
-0.159868
-0.133012
-0.106999
-0.0827106
-0.0600893
-0.0414243
-0.0234655
-0.0131477
0.000953945
-0.366007
-0.369949
-0.372401
-0.375023
-0.377955
-0.380974
-0.383997
-0.387004
-0.389954
-0.392789
-0.395442
-0.397841
-0.399903
-0.401539
-0.402651
-0.403116
-0.402824
-0.40163
-0.399393
-0.395966
-0.391191
-0.38491
-0.376964
-0.367203
-0.35549
-0.341715
-0.325801
-0.307735
-0.287547
-0.265381
-0.241425
-0.216058
-0.189641
-0.162806
-0.136075
-0.110152
-0.0858484
-0.0632097
-0.0441861
-0.0261462
-0.0146559
-0.000559879
-0.363436
-0.367596
-0.370101
-0.372687
-0.375597
-0.378608
-0.381627
-0.384633
-0.387595
-0.390456
-0.393152
-0.395611
-0.397749
-0.399472
-0.400688
-0.401314
-0.401174
-0.400146
-0.398097
-0.394874
-0.390319
-0.384271
-0.376572
-0.367068
-0.355622
-0.342122
-0.326488
-0.308704
-0.288798
-0.266913
-0.243231
-0.21813
-0.191958
-0.165348
-0.138795
-0.113015
-0.0887348
-0.0661184
-0.0467649
-0.0286495
-0.016079
-0.00191788
-0.36048
-0.364819
-0.367401
-0.369957
-0.372834
-0.375826
-0.378826
-0.381815
-0.384766
-0.38763
-0.390343
-0.392837
-0.395034
-0.396851
-0.39815
-0.398868
-0.398848
-0.397969
-0.396089
-0.393054
-0.388705
-0.382883
-0.375425
-0.366178
-0.355003
-0.341788
-0.326449
-0.308971
-0.289376
-0.26781
-0.244445
-0.21966
-0.193788
-0.167459
-0.141136
-0.115552
-0.0913372
-0.0687831
-0.0491375
-0.0309551
-0.0174048
-0.00312864
-0.357148
-0.361596
-0.364284
-0.366824
-0.369659
-0.372618
-0.375587
-0.378545
-0.381468
-0.384312
-0.387019
-0.389516
-0.39172
-0.393552
-0.394975
-0.395769
-0.395847
-0.395096
-0.393364
-0.390499
-0.386343
-0.380733
-0.373509
-0.364517
-0.353616
-0.340694
-0.325666
-0.308516
-0.289263
-0.268052
-0.245048
-0.220628
-0.195108
-0.169116
-0.143077
-0.117742
-0.0936355
-0.0711828
-0.0512891
-0.0330515
-0.0186251
-0.00420229
-0.353458
-0.357898
-0.360716
-0.363262
-0.366044
-0.368955
-0.371883
-0.374799
-0.37768
-0.380487
-0.383169
-0.385665
-0.387906
-0.389756
-0.391183
-0.392015
-0.392173
-0.391525
-0.389921
-0.387208
-0.383228
-0.37782
-0.370822
-0.362082
-0.351458
-0.338838
-0.324137
-0.307338
-0.288457
-0.267639
-0.245039
-0.221032
-0.195916
-0.170314
-0.144611
-0.119574
-0.095621
-0.0733068
-0.0532133
-0.0349348
-0.0197349
-0.00514932
-0.349439
-0.353712
-0.356663
-0.359231
-0.361948
-0.364794
-0.367672
-0.370538
-0.373364
-0.376118
-0.378751
-0.381199
-0.383392
-0.385306
-0.386739
-0.3876
-0.387819
-0.387255
-0.385759
-0.383181
-0.379365
-0.374149
-0.367372
-0.358883
-0.34854
-0.336234
-0.321876
-0.305453
-0.286975
-0.266587
-0.244434
-0.220889
-0.196224
-0.171063
-0.145745
-0.121052
-0.097295
-0.0751538
-0.0549101
-0.0366071
-0.0207328
-0.00598008
-0.34509
-0.349042
-0.352109
-0.354701
-0.357333
-0.360094
-0.362912
-0.365722
-0.368485
-0.371177
-0.373759
-0.376179
-0.378359
-0.380228
-0.381636
-0.382522
-0.382787
-0.382289
-0.380887
-0.378432
-0.374769
-0.369738
-0.36318
-0.354945
-0.344891
-0.332912
-0.318918
-0.302896
-0.284852
-0.264932
-0.243266
-0.220226
-0.19606
-0.171386
-0.146494
-0.122188
-0.0986673
-0.0767304
-0.0563855
-0.0380757
-0.0216201
-0.00670466
-0.34035
-0.343886
-0.347052
-0.349656
-0.352176
-0.354831
-0.357581
-0.360328
-0.36302
-0.36564
-0.368158
-0.370522
-0.372665
-0.374496
-0.375892
-0.376795
-0.37709
-0.376647
-0.375328
-0.372989
-0.369474
-0.364626
-0.358288
-0.350313
-0.340559
-0.328922
-0.315313
-0.299719
-0.28214
-0.262722
-0.241583
-0.219089
-0.195461
-0.171314
-0.146888
-0.123003
-0.0997549
-0.0780495
-0.05765
-0.0393514
-0.0224007
-0.00733303
-0.335115
-0.338234
-0.341498
-0.344095
-0.346477
-0.349012
-0.351688
-0.354363
-0.356976
-0.359519
-0.361966
-0.364265
-0.366364
-0.36815
-0.369542
-0.370449
-0.370765
-0.370371
-0.369132
-0.366904
-0.363535
-0.358873
-0.352761
-0.345053
-0.335613
-0.324335
-0.311132
-0.29599
-0.278906
-0.260022
-0.239444
-0.21753
-0.194476
-0.17089
-0.14696
-0.123525
-0.10058
-0.0791287
-0.0587173
-0.0404479
-0.0230804
-0.00787473
-0.329325
-0.332092
-0.335465
-0.338031
-0.34026
-0.342679
-0.345278
-0.347873
-0.350399
-0.352863
-0.355237
-0.357464
-0.359485
-0.361254
-0.36264
-0.363544
-0.36388
-0.363534
-0.362372
-0.360255
-0.357035
-0.352561
-0.346681
-0.339253
-0.330139
-0.319238
-0.30646
-0.291795
-0.27523
-0.256908
-0.236919
-0.215613
-0.193159
-0.170158
-0.146748
-0.123784
-0.101167
-0.0799883
-0.0596032
-0.0413797
-0.0236664
-0.00833865
-0.323019
-0.325531
-0.329007
-0.331505
-0.333583
-0.335906
-0.338432
-0.340934
-0.343368
-0.345752
-0.348046
-0.350184
-0.35214
-0.3539
-0.355271
-0.356173
-0.35653
-0.35623
-0.355146
-0.353142
-0.350074
-0.345794
-0.340154
-0.333014
-0.324238
-0.313728
-0.301393
-0.287223
-0.271199
-0.253459
-0.234078
-0.213401
-0.191565
-0.169166
-0.146292
-0.123811
-0.10154
-0.0806474
-0.0603222
-0.0421603
-0.0241654
-0.00873273
-0.316316
-0.318689
-0.32221
-0.324587
-0.326535
-0.328796
-0.331247
-0.333647
-0.335987
-0.338289
-0.340504
-0.342578
-0.34444
-0.346184
-0.347541
-0.348448
-0.348828
-0.348574
-0.347568
-0.345678
-0.342764
-0.338683
-0.333288
-0.326443
-0.318015
-0.307907
-0.296027
-0.282364
-0.266894
-0.24975
-0.23099
-0.210952
-0.189743
-0.167953
-0.145623
-0.123633
-0.101722
-0.0811247
-0.0608892
-0.0428036
-0.0245849
-0.0090641
-0.30948
-0.311758
-0.315187
-0.317374
-0.319234
-0.32147
-0.32384
-0.326133
-0.328386
-0.330618
-0.332773
-0.334804
-0.336681
-0.338244
-0.339569
-0.340489
-0.340894
-0.34069
-0.339763
-0.33799
-0.335232
-0.331352
-0.326205
-0.31966
-0.311585
-0.301885
-0.290467
-0.277318
-0.262409
-0.245866
-0.227733
-0.208337
-0.187758
-0.166578
-0.144794
-0.123295
-0.101751
-0.0814542
-0.0613326
-0.0433327
-0.0249404
-0.00934208
-0.302818
-0.304968
-0.308089
-0.310008
-0.311826
-0.314049
-0.316332
-0.318537
-0.32073
-0.322904
-0.324997
-0.326955
-0.328704
-0.330215
-0.331518
-0.332445
-0.332883
-0.332735
-0.331892
-0.330237
-0.327638
-0.32396
-0.319063
-0.312821
-0.305102
-0.295815
-0.284863
-0.272234
-0.257888
-0.241949
-0.224441
-0.205683
-0.185728
-0.165147
-0.1439
-0.122879
-0.101699
-0.0816931
-0.0616973
-0.0437816
-0.0252556
-0.00958107
-0.296713
-0.298617
-0.30109
-0.30262
-0.304375
-0.306525
-0.308689
-0.31081
-0.312942
-0.315057
-0.31711
-0.319066
-0.320876
-0.322342
-0.323527
-0.324401
-0.324839
-0.324728
-0.323959
-0.322418
-0.319976
-0.316504
-0.311864
-0.305932
-0.298578
-0.289712
-0.279234
-0.267128
-0.253348
-0.238008
-0.221117
-0.202985
-0.183636
-0.163636
-0.142908
-0.122349
-0.101525
-0.0818058
-0.0619516
-0.0441292
-0.0255166
-0.00978636
-0.291295
-0.29291
-0.294304
-0.295312
-0.296907
-0.298849
-0.300824
-0.302826
-0.304857
-0.306867
-0.308802
-0.310599
-0.312185
-0.313613
-0.314887
-0.315813
-0.316307
-0.316268
-0.315592
-0.314173
-0.311888
-0.308612
-0.304214
-0.298571
-0.291556
-0.28308
-0.273042
-0.261426
-0.248177
-0.233408
-0.217111
-0.199591
-0.180848
-0.161447
-0.141268
-0.121223
-0.100819
-0.0814654
-0.0618389
-0.0442056
-0.0256049
-0.00992497
-0.284912
-0.28815
-0.289105
-0.290111
-0.291709
-0.293563
-0.295458
-0.297378
-0.299317
-0.30125
-0.303145
-0.304977
-0.306687
-0.308015
-0.308935
-0.309669
-0.31004
-0.309898
-0.309137
-0.307654
-0.30533
-0.302046
-0.297673
-0.292097
-0.285196
-0.276887
-0.267073
-0.255744
-0.242842
-0.228483
-0.212651
-0.195647
-0.177448
-0.158617
-0.138993
-0.119494
-0.0995628
-0.0806509
-0.0613338
-0.043986
-0.02549
-0.00996138
-0.277608
-0.281667
-0.282914
-0.283914
-0.285472
-0.287312
-0.289174
-0.291013
-0.292844
-0.294654
-0.296404
-0.298035
-0.299464
-0.300652
-0.301603
-0.302261
-0.302526
-0.302286
-0.301443
-0.299899
-0.297543
-0.294263
-0.289937
-0.284459
-0.277713
-0.269624
-0.260098
-0.249127
-0.236654
-0.22279
-0.207511
-0.191107
-0.173538
-0.155347
-0.13635
-0.117448
-0.0980515
-0.0796114
-0.0606603
-0.0436152
-0.025292
-0.00992895
-0.270589
-0.275067
-0.276436
-0.277378
-0.278876
-0.280687
-0.282504
-0.28426
-0.28598
-0.287664
-0.289272
-0.290752
-0.292056
-0.29315
-0.293987
-0.294502
-0.294625
-0.294264
-0.293323
-0.291708
-0.289313
-0.286035
-0.281758
-0.276384
-0.269804
-0.261948
-0.252726
-0.242132
-0.230109
-0.216761
-0.202058
-0.186273
-0.169356
-0.151825
-0.13348
-0.115193
-0.0963598
-0.0784098
-0.0598644
-0.0431392
-0.0250476
-0.00985953
-0.263968
-0.268414
-0.269799
-0.270701
-0.272141
-0.273908
-0.275672
-0.27735
-0.27897
-0.280541
-0.282031
-0.283394
-0.284589
-0.285569
-0.286277
-0.286662
-0.286662
-0.286195
-0.285169
-0.283495
-0.281073
-0.277807
-0.273589
-0.268327
-0.261918
-0.254298
-0.245381
-0.235162
-0.223583
-0.210742
-0.196604
-0.181427
-0.16515
-0.148264
-0.130561
-0.112878
-0.0946068
-0.0771418
-0.0590148
-0.0426101
-0.0247834
-0.00976617
-0.257121
-0.261569
-0.262992
-0.263873
-0.26526
-0.266975
-0.268686
-0.270294
-0.271826
-0.273296
-0.274679
-0.275932
-0.277014
-0.277876
-0.27847
-0.278745
-0.278641
-0.278082
-0.276985
-0.275264
-0.272828
-0.269584
-0.265433
-0.26029
-0.254058
-0.246676
-0.238064
-0.228216
-0.217075
-0.204733
-0.19115
-0.176566
-0.160917
-0.144663
-0.127592
-0.110503
-0.0927927
-0.0758087
-0.0581112
-0.0420291
-0.0244957
-0.00964979
-0.250092
-0.254594
-0.256055
-0.256912
-0.258245
-0.259906
-0.261564
-0.263107
-0.264559
-0.265937
-0.267221
-0.26837
-0.269344
-0.270099
-0.27059
-0.270767
-0.270571
-0.269932
-0.268775
-0.267018
-0.264576
-0.261363
-0.257288
-0.25227
-0.246218
-0.239076
-0.230768
-0.221287
-0.210579
-0.198726
-0.185688
-0.171688
-0.156653
-0.14102
-0.124571
-0.108067
-0.0909151
-0.0744091
-0.0571518
-0.0413961
-0.0241818
-0.00951277
-0.243016
-0.247516
-0.249004
-0.249841
-0.251121
-0.252728
-0.254334
-0.255818
-0.257196
-0.25849
-0.259682
-0.260736
-0.261613
-0.262272
-0.26267
-0.262757
-0.262479
-0.261772
-0.260564
-0.258781
-0.256343
-0.253171
-0.249177
-0.244289
-0.23842
-0.231519
-0.223512
-0.214394
-0.204111
-0.192738
-0.180233
-0.166801
-0.152369
-0.137341
-0.121505
-0.105576
-0.0889787
-0.0729477
-0.0561392
-0.0407144
-0.0238416
-0.0093582
-0.23587
-0.240335
-0.241852
-0.242677
-0.243908
-0.245463
-0.247018
-0.248447
-0.249759
-0.250976
-0.252086
-0.253055
-0.253844
-0.254416
-0.25473
-0.254738
-0.25439
-0.253625
-0.252377
-0.250578
-0.248153
-0.245028
-0.241123
-0.236368
-0.230684
-0.224023
-0.216315
-0.207553
-0.197686
-0.186781
-0.174795
-0.161918
-0.148073
-0.133637
-0.1184
-0.103035
-0.0869885
-0.0714293
-0.0550762
-0.0399878
-0.0234752
-0.00918875
-0.228652
-0.233076
-0.23462
-0.235438
-0.236625
-0.238128
-0.239636
-0.241013
-0.242265
-0.243414
-0.24445
-0.245342
-0.246053
-0.246548
-0.246788
-0.246728
-0.24632
-0.245508
-0.244231
-0.242426
-0.240023
-0.236952
-0.23314
-0.228522
-0.223025
-0.216601
-0.209187
-0.200775
-0.191314
-0.180866
-0.169385
-0.157047
-0.143773
-0.129913
-0.115263
-0.100451
-0.0849493
-0.0698587
-0.0539659
-0.0392197
-0.0230831
-0.00900671
-0.2214
-0.225763
-0.227328
-0.228142
-0.22929
-0.230744
-0.232206
-0.233535
-0.234733
-0.23582
-0.23679
-0.237614
-0.238257
-0.238684
-0.238859
-0.238741
-0.238284
-0.237436
-0.23614
-0.234338
-0.231964
-0.228955
-0.225241
-0.220763
-0.215453
-0.209265
-0.20214
-0.194069
-0.185004
-0.174999
-0.164009
-0.152195
-0.139476
-0.126177
-0.1121
-0.0978303
-0.0828659
-0.0682406
-0.0528115
-0.0384136
-0.0226662
-0.00881408
-0.214128
-0.218414
-0.219994
-0.220807
-0.221919
-0.223326
-0.224744
-0.22603
-0.227178
-0.228211
-0.229122
-0.229886
-0.230468
-0.230837
-0.230958
-0.230791
-0.230295
-0.229421
-0.228116
-0.226325
-0.223988
-0.221047
-0.217436
-0.2131
-0.207976
-0.202022
-0.195181
-0.187444
-0.178764
-0.16919
-0.158676
-0.147368
-0.135188
-0.122435
-0.108916
-0.0951776
-0.0807434
-0.06658
-0.0516162
-0.037573
-0.0222255
-0.00861257
-0.206848
-0.211044
-0.212635
-0.213449
-0.214529
-0.215892
-0.217268
-0.218513
-0.219617
-0.220601
-0.22146
-0.222171
-0.222702
-0.223021
-0.223096
-0.222891
-0.222365
-0.221473
-0.220168
-0.218397
-0.216104
-0.213236
-0.209732
-0.205541
-0.200603
-0.19488
-0.188317
-0.180906
-0.1726
-0.163443
-0.153391
-0.142574
-0.130917
-0.118693
-0.105719
-0.0924994
-0.078587
-0.064882
-0.050384
-0.0367015
-0.0217625
-0.00840368
-0.199577
-0.203674
-0.205269
-0.206086
-0.207138
-0.208459
-0.209795
-0.211002
-0.212067
-0.213007
-0.21382
-0.214485
-0.214972
-0.215249
-0.215287
-0.215051
-0.214504
-0.213605
-0.212307
-0.210563
-0.208322
-0.205532
-0.202139
-0.198093
-0.193341
-0.187845
-0.181555
-0.17446
-0.166518
-0.157767
-0.14816
-0.137819
-0.126668
-0.114958
-0.102514
-0.0898016
-0.076402
-0.0631516
-0.0491186
-0.0358026
-0.0212788
-0.00818869
-0.192335
-0.19632
-0.197916
-0.198738
-0.199764
-0.201045
-0.202343
-0.203515
-0.204543
-0.205444
-0.206218
-0.206843
-0.207292
-0.207535
-0.207543
-0.207285
-0.206726
-0.205826
-0.204543
-0.202833
-0.200648
-0.197942
-0.194662
-0.190763
-0.186195
-0.180923
-0.1749
-0.168114
-0.160525
-0.152165
-0.14299
-0.133109
-0.122447
-0.111235
-0.0993063
-0.0870903
-0.0741941
-0.061394
-0.0478241
-0.0348797
-0.0207765
-0.00796872
-0.185139
-0.189002
-0.190594
-0.191422
-0.192425
-0.193669
-0.19493
-0.196069
-0.197064
-0.19793
-0.198669
-0.19926
-0.199676
-0.199892
-0.199878
-0.199605
-0.19904
-0.198146
-0.196885
-0.195216
-0.193093
-0.190473
-0.187309
-0.183558
-0.179173
-0.174121
-0.168358
-0.161873
-0.154625
-0.146644
-0.137886
-0.128449
-0.118261
-0.107532
-0.0961033
-0.0843715
-0.0719689
-0.0596144
-0.046505
-0.0339364
-0.0202574
-0.00774479
-0.178008
-0.181739
-0.183322
-0.184157
-0.18514
-0.186348
-0.187574
-0.188681
-0.189645
-0.190481
-0.191188
-0.19175
-0.192139
-0.192333
-0.192303
-0.192022
-0.191458
-0.190578
-0.189345
-0.18772
-0.185664
-0.183134
-0.180087
-0.176484
-0.172279
-0.167444
-0.161935
-0.155742
-0.148825
-0.14121
-0.132854
-0.123846
-0.114115
-0.103854
-0.0929109
-0.0816514
-0.0697321
-0.0578182
-0.0451654
-0.0329762
-0.0197238
-0.00751782
-0.170963
-0.174552
-0.176121
-0.176962
-0.177927
-0.179101
-0.180292
-0.181368
-0.182304
-0.183112
-0.183793
-0.184329
-0.184699
-0.184874
-0.184833
-0.184549
-0.183991
-0.18313
-0.18193
-0.180355
-0.178369
-0.175931
-0.173003
-0.169547
-0.165521
-0.160898
-0.155636
-0.149726
-0.143129
-0.135868
-0.1279
-0.119305
-0.110016
-0.100207
-0.0897353
-0.0789363
-0.0674897
-0.0560106
-0.04381
-0.0320026
-0.0191779
-0.00728868
-0.16402
-0.167461
-0.16901
-0.169856
-0.170804
-0.171945
-0.173101
-0.174148
-0.175057
-0.17584
-0.176496
-0.177012
-0.177363
-0.177527
-0.17748
-0.177197
-0.176651
-0.175813
-0.17465
-0.173129
-0.171216
-0.168873
-0.166064