/*--------------------------------*- C++ -*----------------------------------*\
  =========                 |
  \\      /  F ield         | OpenFOAM: The Open Source CFD Toolbox
   \\    /   O peration     | Website:  https://openfoam.org
    \\  /    A nd           | Version:  7
     \\/     M anipulation  |
\*---------------------------------------------------------------------------*/
FoamFile
{
    version     2.0;
    format      ascii;
    class       surfaceScalarField;
    location    "10";
    object      phi;
}
// * * * * * * * * * * * * * * * * * * * * * * * * * * * * * * * * * * * * * //

dimensions      [0 3 -1 0 0 0 0];

internalField   nonuniform List<scalar> 
16429
(
-1.90531e-05
1.90173e-05
3.58953e-08
-6.0327e-05
4.11952e-05
7.86687e-08
-0.000117614
5.71831e-05
1.03902e-07
-0.000187035
6.93039e-05
1.17173e-07
-0.000267056
7.98972e-05
1.24125e-07
-0.000357441
9.02563e-05
1.28085e-07
-0.000458822
0.000101251
1.30316e-07
-0.00057224
0.000113287
1.30511e-07
-0.000698966
0.000126599
1.2763e-07
-0.000840124
0.000141037
1.20242e-07
-0.00099735
0.000157119
1.06895e-07
-0.00117065
0.00017321
8.57602e-08
-0.00136444
0.000193738
5.56856e-08
0.000208122
1.46544e-08
-0.00157258
-1.87627e-05
3.77799e-05
-5.94816e-05
8.19142e-05
-0.000116
0.000113702
-0.000184424
0.000137728
-0.000263148
0.000158621
-0.00035183
0.000178938
-0.00045097
0.00020039
-0.000561442
0.00022376
-0.000684323
0.00024948
-0.000820452
0.000277166
-0.000971234
0.000307901
-0.00113593
0.000337907
-0.00131928
0.000377089
0.000401677
-0.00151284
-1.81909e-05
5.59708e-05
-5.78148e-05
0.000121538
-0.000112815
0.000168701
-0.000179267
0.000204181
-0.000255428
0.000234782
-0.000340752
0.000264262
-0.000435476
0.000295115
-0.000540155
0.000328439
-0.000655491
0.000364816
-0.000781774
0.000403449
-0.000920001
0.000446128
-0.00106796
0.000485865
-0.00123112
0.000540254
0.000567175
-0.00139662
-1.73565e-05
7.33273e-05
-5.53746e-05
0.000159556
-0.000108142
0.000221469
-0.000171696
0.000267734
-0.000244091
0.000307177
-0.000324488
0.000344659
-0.000412754
0.000383381
-0.000508983
0.000424668
-0.000613356
0.000469188
-0.000725386
0.00051548
-0.000845578
0.000566319
-0.000969536
0.000609823
-0.00110407
0.000674789
0.000693211
-0.00123011
-1.62863e-05
8.96136e-05
-5.22311e-05
0.000195501
-0.000102106
0.000271344
-0.0001619
0.000327528
-0.000229417
0.000374694
-0.000303451
0.000418693
-0.000383402
0.000463333
-0.000468797
0.000510063
-0.000559187
0.000559578
-0.000653121
0.000609414
-0.000750655
0.000663853
-0.000844552
0.00070372
-0.000943687
0.000773924
0.000771148
-0.00102162
-1.50147e-05
0.000104628
-4.84741e-05
0.00022896
-9.4865e-05
0.000317734
-0.000150124
0.000382788
-0.000211768
0.000436337
-0.000278164
0.000485089
-0.000348179
0.000533348
-0.00042069
0.000582574
-0.000494559
0.000633447
-0.000567235
0.00068209
-0.000638478
0.000735095
-0.000697687
0.000762929
-0.000756427
0.000832664
0.000795508
-0.000780787
-1.3582e-05
0.00011821
-4.42099e-05
0.000259588
-8.66079e-05
0.000360133
-0.000136661
0.000432841
-0.000191571
0.000491247
-0.000249244
0.000542763
-0.00030797
0.000592073
-0.000365927
0.000640532
-0.000421274
0.000688793
-0.000470279
0.000731094
-0.000512606
0.000777423
-0.000534083
0.000784406
-0.000548966
0.000847547
0.000764075
-0.000517532
-1.20331e-05
0.000130243
-3.95577e-05
0.000287113
-7.75472e-05
0.000398122
-0.000121838
0.000477132
-0.000169306
0.000538715
-0.000217379
0.000590836
-0.000263749
0.000638443
-0.000305886
0.000682669
-0.000341261
0.000724168
-0.000364962
0.000754795
-0.000376673
0.000789134
-0.000359062
0.000766796
-0.000327463
0.000815948
0.000678124
-0.000241513
-1.04158e-05
0.000140659
-3.46454e-05
0.000311343
-6.79121e-05
0.000431389
-0.000106008
0.000515228
-0.000145487
0.000578194
-0.000183299
0.000628648
-0.000216544
0.000671688
-0.000241996
0.000708121
-0.000256482
0.000738653
-0.000254016
0.000752329
-0.000234107
0.000769225
-0.000178092
0.000710782
-9.59384e-05
0.000733794
0.000545031
3.71545e-05
-8.77894e-06
0.000149438
-2.96054e-05
0.000332169
-5.79408e-05
0.000459724
-8.95403e-05
0.000546828
-0.000120647
0.0006093
-0.000147751
0.000655752
-0.000167384
0.000691322
-0.000175666
0.000716403
-0.000168818
0.000731806
-0.000140092
0.000723602
-8.73759e-05
0.000716509
-5.88644e-07
0.000623994
0.000132042
0.000601164
0.000353644
0.000323429
-7.17059e-06
0.000156609
-2.45691e-05
0.000349568
-4.78719e-05
0.000483027
-7.28013e-05
0.000571757
-9.53114e-05
0.00063181
-0.000111464
0.000671904
-0.000117257
0.000697116
-0.000108205
0.000707351
-7.9889e-05
0.000703489
-2.62046e-05
0.000669917
5.98861e-05
0.000630418
0.000190282
0.000493598
0.000355364
0.000436082
0.000104671
0.000604337
-5.63629e-06
0.000162245
-1.96629e-05
0.000363594
-3.79354e-05
0.000501299
-5.61452e-05
0.000589967
-6.99836e-05
0.000645649
-7.51185e-05
0.000677039
-6.7059e-05
0.000689056
-4.07939e-05
0.000681086
9.44216e-06
0.000653253
8.87686e-05
0.000590591
0.000203819
0.000515368
0.000373698
0.000323718
0.000577405
0.000232375
-0.000200128
0.000882205
-4.21735e-06
0.000166462
-1.50022e-05
0.000374379
-2.83434e-05
0.000514641
-3.98965e-05
0.00060152
-4.51156e-05
0.000650868
-3.931e-05
0.000671234
-1.75186e-05
0.000667265
2.56709e-05
0.000637897
9.64064e-05
0.000582518
0.000201786
0.000485211
0.000347088
0.000370066
0.000554388
0.000116418
0.00079849
-1.17269e-05
-0.000561851
0.00116021
-2.94931e-06
0.000169412
-1.06876e-05
0.000382117
-1.9281e-05
0.000523234
-2.4335e-05
0.000606574
-2.10858e-05
0.000647618
-4.51426e-06
0.000654662
3.08038e-05
0.000631947
9.08332e-05
0.000577867
0.000182328
0.000491023
0.000312771
0.000354768
0.000489786
0.000193051
0.000734263
-0.000128058
0.00102236
-0.000299822
-0.000983385
0.00144389
-1.86055e-06
0.000171272
-6.79969e-06
0.000387056
-1.08967e-05
0.000527331
-9.67953e-06
0.000605357
1.8276e-06
0.000636111
2.89815e-05
0.000627508
7.76611e-05
0.000583267
0.000154414
0.000501114
0.000267056
0.000378381
0.000422886
0.000198939
0.000633969
-1.80323e-05
0.000916807
-0.000410897
0.0012548
-0.000637816
-0.0014681
0.00173952
-9.71339e-07
0.000172243
-3.39424e-06
0.000389479
-3.29411e-06
0.000527231
3.92698e-06
0.000598136
2.34702e-05
0.000616568
6.10604e-05
0.000589918
0.000123128
0.0005212
0.000216891
0.000407351
0.00035164
0.000243631
0.000534335
1.62445e-05
0.000782973
-0.00026667
0.00110703
-0.000734952
0.00150228
-0.00103307
-0.00201738
0.00205156
-2.95239e-07
0.000172539
-4.80231e-07
0.000389664
3.47644e-06
0.000523274
1.64293e-05
0.000585183
4.38362e-05
0.000589161
9.18648e-05
0.000541889
0.000167648
0.000445417
0.000279277
0.000295722
0.000437923
8.49858e-05
0.000650446
-0.000196279
0.000940937
-0.000557161
0.00131059
-0.00110461
0.00176999
-0.00149247
-0.00262729
0.00237991
1.82289e-07
0.000172356
1.86102e-06
0.000387986
9.41863e-06
0.000515717
2.78791e-05
0.000566722
6.30876e-05
0.000553953
0.000121799
0.000483178
0.000212072
0.000355144
0.000343168
0.000164626
0.000528427
-0.000100273
0.000775316
-0.000443168
0.0011121
-0.000893942
0.00153232
-0.00152484
0.00205949
-0.00201963
-0.00328608
0.00271827
4.60664e-07
0.000171896
3.73618e-06
0.00038471
1.46063e-05
0.000504846
3.84343e-05
0.000542894
8.15662e-05
0.000510821
0.000151547
0.000413197
0.000257653
0.000249038
0.00041068
1.15996e-05
0.000626139
-0.000315732
0.000913105
-0.000730134
0.00129985
-0.00128069
0.00177419
-0.00199918
0.00236652
-0.00261197
-0.00397402
0.00305446
5.48048e-07
0.000171348
5.18968e-06
0.000380068
1.91739e-05
0.000490862
4.83677e-05
0.000513701
9.97965e-05
0.000459392
0.000182062
0.000330931
0.000305996
0.000125104
0.000484286
-0.000166691
0.000734172
-0.000565618
0.00106705
-0.00106301
0.00150562
-0.00171926
0.00203358
-0.00252713
0.00268015
-0.00325854
-0.00466649
0.00337261
4.85101e-07
6.30871e-06
0.000374245
2.33184e-05
0.000473853
5.80618e-05
0.000478957
0.000118476
0.000398978
0.000214536
0.000234871
0.000358956
-1.93154e-05
0.000566552
-0.000374287
0.000855296
-0.000854362
0.00123845
-0.00144616
0.00172772
-0.00220853
0.00230265
-0.00310207
0.00298399
-0.00393987
-0.00533899
0.00365649
7.21108e-06
0.000367346
2.72947e-05
0.000453769
6.79983e-05
0.000438254
0.000138447
0.000328529
0.000250332
0.000122986
0.000418486
-0.000187469
0.000659769
-0.00061557
0.000991318
-0.00118591
0.001426
-0.00188085
0.00196058
-0.00274311
0.00256932
-0.00371081
0.00325999
-0.00463054
-0.00597181
0.00389281
8.03798e-06
0.000359391
3.1406e-05
0.000430401
7.87392e-05
0.00039092
0.000160662
0.000246607
0.000290895
-7.24793e-06
0.000486433
-0.000383006
0.000765544
-0.000894682
0.0011424
-0.00156276
0.00162548
-0.00236394
0.00219504
-0.00331266
0.00281949
-0.00433525
0.00349294
-0.00530399
-0.00655243
0.00407356
8.94708e-06
0.000350264
3.59914e-05
0.000403357
9.09009e-05
0.000336011
0.000186118
0.00015139
0.000337628
-0.000158758
0.000564294
-0.000609672
0.000884392
-0.00121478
0.00130647
-0.00198485
0.00183001
-0.00288747
0.00241978
-0.00390244
0.00304
-0.00495547
0.00367363
-0.00593762
-0.00707542
0.00419662
1.01077e-05
4.14098e-05
0.000372054
0.000105121
0.0002723
0.000215799
4.07119e-05
0.000391751
-0.00033471
0.000652951
-0.000870872
0.0010154
-0.00157723
0.00147908
-0.00244853
0.00203079
-0.00343918
0.00262359
-0.00449524
0.00322112
-0.00555299
0.00379958
-0.00651608
-0.00754119
0.00426534
4.80224e-05
0.000335724
0.000122022
0.0001983
0.000250595
-8.78603e-05
0.000454156
-0.000538272
0.000752407
-0.00116912
0.00115603
-0.00198085
0.00165377
-0.00294627
0.00221853
-0.00400394
0.00279751
-0.00507422
0.00335773
-0.00611321
0.00387358
-0.00703194
-0.00795396
0.00428635
5.61747e-05
0.000293415
0.000142177
0.000112298
0.000291229
-0.000236913
0.000525248
-0.00077229
0.000861576
-0.00150545
0.00130218
-0.00242145
0.00182299
-0.00346708
0.00238493
-0.00456588
0.00293605
-0.00562534
0.00344923
-0.00662639
0.00390153
-0.00748424
-0.00832111
0.00426869
6.61793e-05
0.000244019
0.000166069
1.24074e-05
0.000338187
-0.00040903
0.000604815
-0.00103892
0.000978196
-0.00187883
0.00144853
-0.00289178
0.0019793
-0.00399785
0.00252398
-0.00511057
0.00303735
-0.00613871
0.00349866
-0.00708771
0.00389005
-0.00787564
-0.00865751
0.00422645
7.83016e-05
0.000194071
-0.000103362
0.000391644
-0.000606603
0.000691923
-0.0013392
0.00109891
-0.00228582
0.00158921
-0.00338208
0.00211647
-0.00452511
0.00263247
-0.00562656
0.00310234
-0.00660858
0.00351184
-0.0074972
0.0038559
-0.0082197
-0.00896536
0.00416375
0.00022641
-0.00023702
0.000451406
-0.000831599
0.000784869
-0.00167266
0.00121957
-0.00272052
0.00171865
-0.00388115
0.0022302
-0.00503666
0.00270978
-0.00610614
0.00313392
-0.00703272
0.0034947
-0.00785798
0.00380466
-0.00852966
-0.00923713
0.00407643
0.000263157
0.000516856
-0.0010853
0.000881242
-0.00203705
0.00133572
-0.003175
0.00183221
-0.00437764
0.00231833
-0.00552278
0.00275729
-0.0065451
0.00313635
-0.00741178
0.00345525
-0.00817688
0.00373147
-0.00880588
-0.00948024
0.00397458
0.000586922
-0.00136802
0.000978087
-0.00242821
0.00144311
-0.00364003
0.00192671
-0.00486124
0.00238062
-0.00597669
0.00277767
-0.00694215
0.00311465
-0.00774876
0.00339708
-0.00845931
0.00364552
-0.00905432
-0.00970231
0.00386758
0.000660088
-0.00167889
0.00107219
-0.00284031
0.00153821
-0.00410605
0.00200049
-0.00532351
0.00241824
-0.00639444
0.00277436
-0.00729827
0.00307326
-0.00804766
0.00332479
-0.00871084
0.00354993
-0.00927946
-0.00990656
0.00375418
0.000734462
0.00116041
-0.00326626
0.00161847
-0.00456411
0.00205325
-0.0057583
0.00243334
-0.00677453
0.00275096
-0.0076159
0.00301628
-0.00831298
0.00324173
-0.00893629
0.00344741
-0.00948514
-0.0100962
0.00363703
0.00123999
-0.00369834
0.00168241
-0.00500653
0.00208577
-0.00616166
0.00242854
-0.0071173
0.00271097
-0.00789832
0.00294712
-0.00854913
0.00315065
-0.00913983
0.00333993
-0.00967442
-0.0102732
0.00351695
0.00130879
0.00172956
-0.00542729
0.00209954
-0.00653165
0.00240665
-0.00742441
0.00265754
-0.00814921
0.00286861
-0.0087602
0.00305364
-0.00932486
0.00322885
-0.00984963
-0.0104391
0.00339475
0.00176025
0.00209647
-0.00686788
0.00237039
-0.00769832
0.00259342
-0.00837224
0.00278302
-0.00894979
0.00295227
-0.00949411
0.00311514
-0.0100125
-0.0105949
0.00327091
0.00207865
-0.00717114
0.00232226
-0.00794193
0.00252092
-0.00857091
0.00269209
-0.00912096
0.0028477
-0.00964971
0.00299948
-0.0101643
-0.0107412
0.00314577
0.00204817
0.0022645
-0.00815827
0.00244194
-0.00874834
0.0025972
-0.00927622
0.00274076
-0.00979328
0.00288232
-0.0103058
-0.0108784
0.00301957
0.00219904
0.00235799
-0.0089073
0.00249935
-0.00941758
0.00263207
-0.00992599
0.00276401
-0.0104378
-0.0110069
0.00289248
0.00227028
0.00239932
-0.00954661
0.00252204
-0.0100487
0.00264478
-0.0105605
-0.0111267
0.00276462
0.00229766
0.00241101
-0.0101621
0.0025248
-0.0106743
-0.011238
0.0026361
0.00229919
0.00240421
-0.0107793
-0.0113408
0.00250699
0.0022831
-0.0114351
0.00237738
0.00224733
0.0114352
0.00224734
0.00218681
0.0102667
0.00228314
0.0107796
0.0113409
0.00237739
0.00219486
0.00966473
0.00229924
0.0101623
0.00240425
0.0106745
0.0112382
0.00250701
0.00229772
0.00954682
0.00241106
0.0100489
0.00252485
0.0105608
0.0111269
0.00263612
0.00227035
0.00890756
0.00239938
0.00941779
0.0025221
0.00992621
0.00264483
0.010438
0.0110071
0.00276465
0.00219914
0.00815864
0.00235807
0.00874863
0.00249942
0.00927645
0.00263213
0.0097935
0.00276407
0.0103061
0.0108786
0.00289252
0.0020483
0.0071716
0.00226461
0.00794233
0.00244203
0.00857122
0.00259727
0.00912121
0.00274083
0.00964994
0.00288239
0.0101645
0.0107414
0.00301962
0.00207879
0.00686835
0.00232238
0.00769874
0.00252102
0.00837258
0.00269217
0.00895006
0.00284777
0.00949434
0.00299954
0.0100127
0.0105951
0.00314582
0.0017604
0.00542775
0.00209663
0.00653212
0.00237052
0.00742484
0.00259353
0.00814957
0.0027831
0.00876049
0.00295235
0.0093251
0.00311521
0.00984987
0.0104393
0.00327097
0.00130893
0.00369867
0.00172972
0.00500696
0.00209971
0.00616213
0.0024068
0.00711774
0.00265766
0.00789871
0.00286871
0.00854944
0.00305372
0.00914009
0.00322893
0.00967467
0.0102735
0.00339481
0.00124012
0.00326655
0.00168257
0.00456451
0.00208594
0.00575875
0.00242871
0.00677498
0.00271111
0.00761631
0.00294723
0.00831332
0.00315074
0.00893658
0.00334001
0.0094854
0.0100964
0.00351703
0.000734536
0.00167901
0.00116053
0.00284056
0.00161862
0.00410641
0.00205343
0.00532395
0.00243351
0.0063949
0.00275112
0.0072987
0.00301641
0.00804803
0.00324184
0.00871115
0.0034475
0.00927973
0.00990684
0.00363711
0.000660152
0.0013681
0.0010723
0.00242841
0.00153837
0.00364035
0.00200067
0.00486165
0.00241843
0.00597714
0.00277453
0.00694259
0.00307341
0.00774916
0.00332491
0.00845965
0.00355003
0.00905461
0.00970261
0.00375427
0.00030422
0.000390484
0.000586976
0.00108535
0.000978187
0.0020372
0.00144326
0.00317527
0.00192689
0.00437802
0.00238081
0.00552322
0.00277786
0.00654554
0.00311482
0.0074122
0.00339722
0.00817724
0.00364563
0.0088062
0.00948056
0.00386768
0.000263174
0.000236988
0.000516901
0.00083162
0.00088133
0.00167277
0.00133586
0.00272075
0.00183239
0.00388149
0.00231854
0.00503707
0.00275749
0.00610659
0.00313653
0.00703316
0.0034554
0.00785838
0.0037316
0.00853
0.00923747
0.00397469
0.000226424
0.000103318
0.000451443
0.0006066
0.000784945
0.00133927
0.0012197
0.00228599
0.00171882
0.00338237
0.00223041
0.00452549
0.00270999
0.005627
0.00313413
0.00660902
0.00349487
0.00749763
0.0038048
0.00822007
0.00896573
0.00407655
7.8304e-05
-0.000244078
0.000194082
-1.24605e-05
0.000391675
0.000409007
0.000691988
0.00103896
0.00109902
0.00187896
0.00158938
0.00289201
0.00211667
0.00399819
0.00263269
0.00511098
0.00310256
0.00613915
0.00351204
0.00708815
0.00385607
0.00787604
0.00865791
0.00416388
6.6182e-05
-0.000293477
0.00016608
-0.000112359
0.000338214
0.000236874
0.000604871
0.000772298
0.000978295
0.00150553
0.00144868
0.00242163
0.0019795
0.00346737
0.00252421
0.00456627
0.00303759
0.00562578
0.00349888
0.00662686
0.00389024
0.00748468
0.00832153
0.00422663
5.61783e-05
-0.00033579
0.000142188
-0.000198368
0.000291254
8.78074e-05
0.000525297
0.000538255
0.000861663
0.00116917
0.00130231
0.00198098
0.00182317
0.00294651
0.00238516
0.00400428
0.0029363
0.00507464
0.00344947
0.00611368
0.00390175
0.0070324
0.00795439
0.00426889
1.1693e-05
-0.000339794
4.80272e-05
-0.000372124
0.000122034
-0.000272375
0.000250618
-4.07767e-05
0.0004542
0.000334674
0.000752483
0.000870886
0.00115615
0.00157732
0.00165394
0.00244872
0.00221875
0.00343947
0.00279777
0.00449562
0.003358
0.00555345
0.00387383
0.00651657
0.00754165
0.00428658
1.01099e-05
-0.000350315
4.14161e-05
-0.00040343
0.000105134
-0.000336093
0.000215823
-0.000151465
0.000391792
0.000158704
0.000653019
0.000609659
0.00101551
0.00121483
0.00147924
0.00198498
0.002031
0.00288771
0.00262385
0.00390278
0.00322139
0.00495591
0.00379984
0.00593812
0.0070759
0.00426559
8.95038e-06
-0.000359445
3.59994e-05
-0.000430479
9.09158e-05
-0.000391009
0.000186143
-0.000246692
0.000337668
7.17927e-06
0.000564357
0.00038297
0.000884489
0.000894696
0.00130662
0.00156285
0.0018302
0.00236412
0.00242003
0.00331295
0.00304029
0.00433565
0.00367393
0.00530448
0.00655293
0.0041969
8.04238e-06
-0.000367404
3.14158e-05
-0.000453853
7.87562e-05
-0.00043835
0.000160688
-0.000328624
0.000290935
-0.000123068
0.000486492
0.000187413
0.000765633
0.000615556
0.00114253
0.00118596
0.00162567
0.00188098
0.00219528
0.00274334
0.00281977
0.00371116
0.00349324
0.00463101
0.00597231
0.00407386
7.21654e-06
-0.000374307
2.73061e-05
-0.000473942
6.80174e-05
-0.000479061
0.000138476
-0.000399083
0.000250374
-0.000234965
0.000418544
1.92423e-05
0.000659852
0.000374248
0.000991435
0.000854375
0.00142617
0.00144625
0.0019608
0.00220871
0.00256959
0.00310237
0.00326031
0.00394029
0.00533949
0.00389313
4.87e-07
-0.000171371
6.31517e-06
-0.000380135
2.33315e-05
-0.000490958
5.8083e-05
-0.000513812
0.000118506
-0.000459506
0.000214579
-0.000331038
0.000359014
-0.000125193
0.000566631
0.000166631
0.000855405
0.000565602
0.0012386
0.00106305
0.00172792
0.00171939
0.00230291
0.00252737
0.0029843
0.00325891
0.00466697
0.00365682
5.50292e-07
-0.000171921
5.19703e-06
-0.000384781
1.91884e-05
-0.00050495
4.83908e-05
-0.000543015
9.98295e-05
-0.000510945
0.000182107
-0.000413315
0.000306055
-0.000249141
0.000484364
-1.16783e-05
0.000734275
0.00031569
0.00106718
0.000730144
0.0015058
0.00128077
0.00203381
0.00199936
0.00268045
0.00261227
0.00397447
0.00337295
4.63241e-07
-0.000172385
3.7443e-06
-0.000388062
1.4622e-05
-0.000515828
3.84589e-05
-0.000566852
8.16009e-05
-0.000554087
0.000151593
-0.000483307
0.000257713
-0.000355261
0.000410756
-0.000164721
0.000626237
0.000100209
0.000913233
0.000443148
0.00130002
0.000893988
0.00177441
0.00152497
0.00236681
0.00201987
0.00328649
0.00305479
1.85274e-07
-0.00017257
1.86971e-06
-0.000389747
9.43528e-06
-0.000523393
2.79048e-05
-0.000585321
6.31235e-05
-0.000589306
0.000121847
-0.00054203
0.000212132
-0.000445546
0.000343244
-0.000295833
0.000528522
-8.50694e-05
0.000775436
0.000196235
0.00111225
0.000557173
0.00153252
0.0011047
0.00205974
0.00149265
0.00262765
0.00271858
-2.92256e-07
-0.000172278
-4.70636e-07
-0.000389569
3.49378e-06
-0.000527358
1.64558e-05
-0.000598283
4.38728e-05
-0.000616723
9.19127e-05
-0.00059007
0.000167708
-0.000521342
0.000279352
-0.000407477
0.000438016
-0.000243733
0.000650561
-1.63103e-05
0.000941081
0.000266652
0.00131077
0.00073501
0.00177022
0.0010332
0.00201767
0.00238019
-9.68138e-07
-0.00017131
-3.38466e-06
-0.000387152
-3.2764e-06
-0.000527466
3.9538e-06
-0.000605514
2.3507e-05
-0.000636276
6.11082e-05
-0.000627671
0.000123188
-0.000583422
0.000216965
-0.000501254
0.000351731
-0.000378499
0.000534444
-0.000199024
0.000783108
1.79891e-05
0.00110719
0.000410927
0.00150249
0.000637905
0.00146835
0.00205182
-1.85723e-06
-0.000169452
-6.78994e-06
-0.000382219
-1.08789e-05
-0.000523377
-9.65276e-06
-0.00060674
1.86407e-06
-0.000647793
2.90287e-05
-0.000654836
7.77201e-05
-0.000632113
0.000154486
-0.00057802
0.000267144
-0.000491156
0.00042299
-0.00035487
0.000634095
-0.000193116
0.000916958
0.000128064
0.00125499
0.000299878
0.000983583
0.00173975
-2.94595e-06
-0.000166506
-1.06778e-05
-0.000374487
-1.92633e-05
-0.000514791
-2.43087e-05
-0.000601694
-2.10501e-05
-0.000651051
-4.46838e-06
-0.000671418
3.08611e-05
-0.000667443
9.09034e-05
-0.000638063
0.000182413
-0.000582666
0.000312872
-0.000485329
0.000489905
-0.000370149
0.000734403
-0.000116434
0.00102252
1.17576e-05
0.000562012
0.00144409
-4.21399e-06
-0.000162292
-1.49925e-05
-0.000363709
-2.83261e-05
-0.000501458
-3.9871e-05
-0.000590149
-4.50811e-05
-0.000645841
-3.92658e-05
-0.000677233
-1.74634e-05
-0.000689245
2.57385e-05
-0.000681264
9.64874e-05
-0.000653415
0.000201882
-0.000590724
0.0003472
-0.000515467
0.000554519
-0.000323753
0.00079864
-0.000232363
0.000200262
0.00116039
-5.63297e-06
-0.000156659
-1.96535e-05
-0.000349688
-3.79187e-05
-0.000483193
-5.61207e-05
-0.000571947
-6.99507e-05
-0.000632011
-7.50764e-05
-0.000672107
-6.70066e-05
-0.000697315
-4.073e-05
-0.000707541
9.51724e-06
-0.000703662
8.88604e-05
-0.000670067
0.000203924
-0.000630531
0.000373822
-0.000493651
0.000577542
-0.000436084
-0.00010456
0.000882364
-7.16738e-06
-0.000149492
-2.45601e-05
-0.000332296
-4.7856e-05
-0.000459897
-7.27781e-05
-0.000547025
-9.52804e-05
-0.000609509
-0.000111424
-0.000655964
-0.000117208
-0.000691531
-0.000108145
-0.000716604
-7.98161e-05
-0.000731991
-2.61206e-05
-0.000723763
5.99839e-05
-0.000716636
0.000190399
-0.000624066
0.000355491
-0.000601175
-0.000353552
0.000604483
-8.77588e-06
-0.000140716
-2.95969e-05
-0.000311475
-5.79259e-05
-0.000431568
-8.95187e-05
-0.000515433
-0.000120618
-0.00057841
-0.000147714
-0.000628868
-0.000167338
-0.000671906
-0.00017561
-0.000708332
-0.000168751
-0.00073885
-0.000140011
-0.000752502
-8.72813e-05
-0.000769365
-4.81154e-07
-0.000710866
0.000132159
-0.000733815
-0.000544959
0.000323565
-1.04129e-05
-0.000130303
-3.46375e-05
-0.00028725
-6.78984e-05
-0.000398307
-0.000105989
-0.000477342
-0.000145461
-0.000538937
-0.000183266
-0.000591063
-0.000216502
-0.00063867
-0.000241945
-0.00068289
-0.000256419
-0.000724376
-0.000253941
-0.00075498
-0.00023402
-0.000789287
-0.000177991
-0.000766895
-9.58219e-05
-0.000815984
-0.000678071
3.72901e-05
-1.20305e-05
-0.000118273
-3.95505e-05
-0.00025973
-7.75348e-05
-0.000360323
-0.00012182
-0.000433057
-0.000169282
-0.000491475
-0.000217349
-0.000542996
-0.000263711
-0.000592307
-0.00030584
-0.000640762
-0.000341204
-0.000689011
-0.000364893
-0.000731291
-0.000376593
-0.000777587
-0.000358968
-0.000784519
-0.000327356
-0.000847596
-0.000764036
-0.000241392
-1.35796e-05
-0.000104693
-4.42035e-05
-0.000229106
-8.65969e-05
-0.000317929
-0.000136645
-0.000383008
-0.00019155
-0.000436571
-0.000249218
-0.000485328
-0.000307936
-0.000533589
-0.000365886
-0.000582812
-0.000421223
-0.000633674
-0.000470217
-0.000682297
-0.000512534
-0.000735271
-0.000533997
-0.000763056
-0.000548867
-0.000832726
-0.000795483
-0.000517419
-1.50126e-05
-8.96805e-05
-4.84686e-05
-0.00019565
-9.48555e-05
-0.000271542
-0.000150111
-0.000327753
-0.00021175
-0.000374932
-0.000278141
-0.000418937
-0.00034815
-0.00046358
-0.000420655
-0.000510307
-0.000494515
-0.000559813
-0.000567182
-0.000609631
-0.000638414
-0.000664039
-0.00069761
-0.000703859
-0.000756338
-0.000773999
-0.000771137
-0.000780684
-1.62846e-05
-7.3396e-05
-5.22265e-05
-0.000159708
-0.000102098
-0.000221671
-0.000161888
-0.000267963
-0.000229402
-0.000307419
-0.000303432
-0.000344908
-0.000383378
-0.000383633
-0.000468767
-0.000424918
-0.00055915
-0.00046943
-0.000653076
-0.000515705
-0.000750601
-0.000566515
-0.000844487
-0.000609973
-0.00094361
-0.000674876
-0.000693213
-0.00102153
-1.73551e-05
-5.60408e-05
-5.53709e-05
-0.000121692
-0.000108136
-0.000168906
-0.000171687
-0.000204412
-0.000244079
-0.000235027
-0.000324473
-0.000264514
-0.000412735
-0.000295371
-0.00050896
-0.000328693
-0.000613327
-0.000365063
-0.00072535
-0.000403681
-0.000845534
-0.000446331
-0.000969483
-0.000486024
-0.00110401
-0.000540351
-0.000567189
-0.00123003
-1.81899e-05
-3.78509e-05
-5.78122e-05
-8.20702e-05
-0.00011281
-0.000113908
-0.000179261
-0.000137961
-0.00025542
-0.000158868
-0.000340741
-0.000179193
-0.000435463
-0.000200649
-0.000540138
-0.000224018
-0.000655469
-0.000249732
-0.000781748
-0.000277402
-0.000919969
-0.00030811
-0.00106792
-0.000338072
-0.00123108
-0.000377194
-0.000401699
-0.00139657
-1.87621e-05
-1.90888e-05
-5.948e-05
-4.13522e-05
-0.000115997
-5.73905e-05
-0.00018442
-6.95378e-05
-0.000263143
-8.01451e-05
-0.000351824
-9.0512e-05
-0.000450962
-0.000101511
-0.000561432
-0.000113548
-0.000684311
-0.000126854
-0.000820436
-0.000141277
-0.000971214
-0.000157332
-0.00113591
-0.00017338
-0.00131925
-0.000193848
-0.00020815
-0.0015128
-1.9053e-05
-6.03265e-05
-0.000117613
-0.000187034
-0.000267055
-0.000357439
-0.000458819
-0.000572236
-0.000698962
-0.000840118
-0.000997343
-0.00117064
-0.00136443
-0.00157257
-0.0016042
3.16241e-05
-4.2988e-09
-0.00163656
3.23759e-05
-8.45173e-09
-0.00166909
3.25343e-05
-1.31342e-08
-0.00170151
3.24403e-05
-1.83606e-08
-0.00173363
3.21507e-05
-2.41652e-08
-0.00176527
3.16624e-05
-3.05837e-08
-0.00179619
3.09573e-05
-3.76515e-08
-0.00182615
3.00106e-05
-4.54021e-08
-0.00185489
2.87937e-05
-5.38661e-08
-0.0018821
2.72751e-05
-6.30685e-08
-0.00190745
2.54216e-05
-7.30256e-08
-0.00193057
2.31984e-05
-8.37408e-08
-0.00195104
2.05695e-05
-9.52083e-08
-0.00196842
1.74851e-05
-1.07434e-07
-0.00198219
1.38915e-05
-1.20496e-07
-0.00199178
9.72974e-06
-1.34563e-07
-0.00199657
4.93386e-06
-1.48371e-07
-0.00199581
-5.98735e-07
-1.56605e-07
-0.00198908
-6.56483e-06
-1.73133e-07
-0.00197553
-1.33572e-05
-1.88285e-07
-0.00195437
-2.09563e-05
-2.02265e-07
-0.00192476
-2.93959e-05
-2.1517e-07
-0.00188582
-3.87115e-05
-2.2666e-07
-0.00183666
-4.89303e-05
-2.36184e-07
-0.00177635
-6.00675e-05
-2.43058e-07
-0.00170398
-7.21201e-05
-2.46502e-07
-0.00161867
-8.50583e-05
-2.45671e-07
-0.00151962
-9.8818e-05
-2.39658e-07
-0.00140609
-0.000113304
-2.27585e-07
-0.0012775
-0.000128381
-2.08601e-07
-0.00113348
-0.000143831
-1.82112e-07
-0.000973905
-0.00015943
-1.4759e-07
-0.000798851
-0.000174948
-1.05276e-07
-0.000608838
-0.000189958
-5.48528e-08
-0.000404611
-0.00020423
2.31078e-09
-0.000187086
-0.000217589
6.42874e-08
4.32055e-05
-0.000230423
1.31548e-07
0.000281578
-0.000238569
1.96259e-07
0.000536924
-0.000255619
2.72844e-07
0.000790098
-0.000253495
3.20761e-07
0.00107684
-0.000287151
4.10957e-07
-0.000294874
4.65006e-07
-0.00154329
6.20791e-05
-0.00157454
6.3629e-05
-0.00160598
6.39688e-05
-0.00163732
6.37859e-05
-0.00166838
6.3203e-05
-0.00169893
6.22189e-05
-0.00172878
6.08009e-05
-0.00175767
5.89009e-05
-0.00178534
5.64624e-05
-0.00181148
5.34231e-05
-0.00183578
4.97163e-05
-0.00185785
4.52724e-05
-0.0018773
4.00211e-05
-0.00189368
3.3866e-05
-0.00190649
2.66979e-05
-0.00191516
1.83973e-05
-0.00191905
8.82291e-06
-0.00191751
-2.13334e-06
-0.00191002
-1.40618e-05
-0.00189578
-2.75922e-05
-0.00187401
-4.27228e-05
-0.00184389
-5.95226e-05
-0.00180454
-7.80615e-05
-0.00175507
-9.83935e-05
-0.0016946
-0.000120547
-0.0016222
-0.000144515
-0.00153702
-0.00017024
-0.00143825
-0.000197587
-0.00132518
-0.00022637
-0.00119725
-0.000256316
-0.00105409
-0.000286988
-0.000895592
-0.000317929
-0.000721824
-0.000348716
-0.000533351
-0.000378431
-0.00033089
-0.000406691
-0.000115474
-0.000433004
0.000112323
-0.000458221
0.000348539
-0.000474785
0.000600653
-0.000507732
0.00085152
-0.000504362
0.00113284
-0.000568473
-0.000584479
-0.00142483
9.02829e-05
-0.00145391
9.27148e-05
-0.00148324
9.32939e-05
-0.0015125
9.30506e-05
-0.00154149
9.21867e-05
-0.00156998
9.07119e-05
-0.00159776
8.85856e-05
-0.0016246
8.57405e-05
-0.00165023
8.20939e-05
-0.00167437
7.75535e-05
-0.00169667
7.20201e-05
-0.00171679
6.53889e-05
-0.00173432
5.7555e-05
-0.00174884
4.83863e-05
-0.00175986
3.77136e-05
-0.00176681
2.53549e-05
-0.00176907
1.10795e-05
-0.00176609
-5.11438e-06
-0.00175723
-2.29183e-05
-0.00174177
-4.30504e-05
-0.00171895
-6.55507e-05
-0.00168794
-9.05272e-05
-0.00164792
-0.000118084
-0.00159801
-0.000148303
-0.00153733
-0.000181223
-0.00146501
-0.000216835
-0.0013802
-0.000255057
-0.00128211
-0.000295671
-0.00117007
-0.000338413
-0.00104351
-0.000382871
-0.000902118
-0.000428385
-0.000745803
-0.000474245
-0.000574598
-0.000519921
-0.000389166
-0.000563864
-0.000190157
-0.000605699
2.11786e-05
-0.00064434
0.000244518
-0.00068156
0.00047601
-0.000706276
0.000722011
-0.000753734
0.000968193
-0.000750544
0.00123943
-0.000839708
-0.00086481
-0.00125512
0.000115302
-0.00128111
0.000118697
-0.00130741
0.000119598
-0.00133371
0.000119351
-0.00135977
0.000118243
-0.00138536
0.000116301
-0.00141026
0.000113488
-0.00143424
0.000109724
-0.00145705
0.000104902
-0.0014784
9.89023e-05
-0.00149797
9.15944e-05
-0.00151542
8.28388e-05
-0.00153036
7.24935e-05
-0.00154238
6.04042e-05
-0.00155101
4.63415e-05
-0.00155571
3.00575e-05
-0.00155584
1.12123e-05
-0.00155098
-9.97431e-06
-0.00154041
-3.34944e-05
-0.00152344
-6.00197e-05
-0.00149934
-8.96483e-05
-0.00146734
-0.00012253
-0.00142662
-0.000158806
-0.00137634
-0.000198582
-0.00131565
-0.000241911
-0.0012437
-0.00028878
-0.00115967
-0.000339093
-0.00106282
-0.000392522
-0.000952478
-0.000448751
-0.000828123
-0.000507226
-0.000689441
-0.000567067
-0.000536427
-0.000627258
-0.00036903
-0.000687317
-0.000188017
-0.000744877
6.38199e-06
-0.000800098
0.000211434
-0.000849392
0.000428452
-0.000898579
0.000652935
-0.00093076
0.000890398
-0.000991197
0.00112951
-0.000989657
0.00138718
-0.00109738
-0.00113201
-0.00104275
0.000136429
-0.00106486
0.000140805
-0.00108737
0.00014211
-0.00110997
0.000141945
-0.00113239
0.000140665
-0.0011544
0.000138315
-0.00117578
0.000134868
-0.0011963
0.00013024
-0.0012157
0.000124307
-0.00123372
0.000116923
-0.00125006
0.000107928
-0.00126437
9.71492e-05
-0.00127628
8.44079e-05
-0.00128541
6.95271e-05
-0.0012913
5.22406e-05
-0.00129346
3.2217e-05
-0.00129125
8.99584e-06
-0.00128433
-1.68922e-05
-0.00127193
-4.58929e-05
-0.00125342
-7.85321e-05
-0.00122809
-0.000114974
-0.00119521
-0.000155412
-0.00115399
-0.000200023
-0.00110363
-0.000248942
-0.00104331
-0.000302232