/*--------------------------------*- C++ -*----------------------------------*\
  =========                 |
  \\      /  F ield         | OpenFOAM: The Open Source CFD Toolbox
   \\    /   O peration     | Website:  https://openfoam.org
    \\  /    A nd           | Version:  7
     \\/     M anipulation  |
\*---------------------------------------------------------------------------*/
FoamFile
{
    version     2.0;
    format      ascii;
    class       volVectorField;
    location    "10";
    object      U;
}
// * * * * * * * * * * * * * * * * * * * * * * * * * * * * * * * * * * * * * //

dimensions      [0 1 -1 0 0 0 0];

internalField   nonuniform List<vector> 
8330
(
(-0.00428724 0.00186974 -3.43825e-21)
(-0.0220638 0.00365195 -1.5446e-20)
(-0.0501672 0.00450925 -2.13863e-20)
(-0.0790975 0.00488149 5.74581e-21)
(-0.108902 0.00502317 6.38618e-21)
(-0.138062 0.00508321 1.48028e-22)
(-0.166746 0.00513225 -1.16755e-20)
(-0.194961 0.00519703 -2.66145e-21)
(-0.222934 0.00528411 -1.69825e-20)
(-0.250717 0.00537661 -2.19217e-21)
(-0.278516 0.00549712 -1.54373e-20)
(-0.30602 0.00555194 -1.63528e-20)
(-0.334194 0.00576317 2.73424e-21)
(-0.36038 0.00562493 -1.01061e-20)
(-0.00442487 0.0055928 -2.79282e-21)
(-0.0221673 0.010937 6.01044e-20)
(-0.0500239 0.0135125 -1.01643e-20)
(-0.078623 0.0146308 -7.41536e-21)
(-0.108009 0.0150541 -3.32488e-20)
(-0.136663 0.015229 1.50084e-20)
(-0.164736 0.0153678 1.45596e-20)
(-0.192209 0.0155509 4.5432e-20)
(-0.219286 0.0157983 -6.51192e-21)
(-0.245975 0.016057 -1.61645e-20)
(-0.272483 0.0163997 2.70466e-20)
(-0.298346 0.0165248 2.48468e-20)
(-0.324737 0.0171506 2.75785e-20)
(-0.348229 0.0166558 2.65922e-20)
(-0.0046965 0.00922388 3.79861e-21)
(-0.0223734 0.0180758 -8.35509e-20)
(-0.0497432 0.0223573 1.5267e-20)
(-0.0776867 0.0242185 -6.74108e-20)
(-0.106243 0.0249175 -4.04591e-20)
(-0.133898 0.0251942 4.18368e-21)
(-0.160761 0.0254024 -1.97441e-21)
(-0.186769 0.0256764 -4.51543e-20)
(-0.212083 0.0260511 6.11296e-20)
(-0.236621 0.0264316 1.60142e-20)
(-0.260611 0.0269559 1.02648e-20)
(-0.283257 0.0270529 -8.05203e-20)
(-0.306228 0.0280939 3.75405e-20)
(-0.324477 0.0270367 2.30806e-20)
(-0.00509478 0.0127049 1.00311e-20)
(-0.02268 0.0249747 -3.52763e-20)
(-0.0493363 0.0309408 1.65983e-20)
(-0.0763139 0.0335386 2.96152e-20)
(-0.103647 0.0345036 -8.28406e-21)
(-0.129826 0.0348609 -8.33511e-20)
(-0.15491 0.0351056 9.52347e-20)
(-0.178768 0.0354262 1.15309e-19)
(-0.201509 0.0358754 1.22611e-20)
(-0.22291 0.0363061 -2.6821e-20)
(-0.243277 0.0369506 5.07722e-20)
(-0.261247 0.036861 3.58435e-20)
(-0.279439 0.0383223 -3.93053e-20)
(-0.290165 0.0363865 -1.55782e-19)
(-0.00560914 0.0159826 6.66705e-20)
(-0.0230844 0.0315453 -1.30875e-20)
(-0.0488195 0.0391642 8.35243e-20)
(-0.0745412 0.0424888 -1.53688e-20)
(-0.100279 0.0437056 8.19991e-20)
(-0.124539 0.044115 -2.86591e-20)
(-0.147312 0.0443517 -7.50428e-20)
(-0.168391 0.0446598 -2.49888e-20)
(-0.187825 0.0451138 -4.65133e-20)
(-0.205204 0.0455006 6.35527e-20)
(-0.221015 0.04619 -9.80276e-20)
(-0.233004 0.0457042 1.31675e-19)
(-0.245428 0.0475975 -1.66406e-20)
(-0.246707 0.044397 1.36832e-19)
(-0.00622634 0.0190102 -4.93964e-20)
(-0.0235828 0.0377071 1.21731e-19)
(-0.0482139 0.0469347 -9.363e-20)
(-0.0724153 0.050971 5.90196e-20)
(-0.0962181 0.0524211 5.23492e-20)
(-0.118149 0.052847 8.37386e-20)
(-0.138132 0.0530218 8.04519e-20)
(-0.155868 0.0532459 -6.02495e-20)
(-0.17136 0.0536215 1.7193e-20)
(-0.183948 0.0538528 -1.06748e-19)
(-0.194478 0.0545051 6.37882e-20)
(-0.199351 0.0533785 -1.58619e-19)
(-0.205429 0.0557174 -7.40908e-21)
(-0.195741 0.0508522 -4.96743e-20)
(-0.00693115 0.0217486 -1.28033e-20)
(-0.0241709 0.0433887 4.15925e-21)
(-0.0475439 0.0541668 1.1133e-19)
(-0.0699917 0.0588926 -4.78904e-20)
(-0.0915535 0.0605526 -6.73208e-20)
(-0.110791 0.0609537 -1.11955e-19)
(-0.127561 0.0610051 -6.04474e-20)
(-0.141467 0.0610644 -1.70697e-20)
(-0.152491 0.0612684 1.26951e-19)
(-0.159641 0.0612214 1.67482e-20)
(-0.164395 0.0617505 1.54131e-20)
(-0.161189 0.0597247 2.28245e-19)
(-0.160746 0.0625035 -1.9534e-20)
(-0.138967 0.0556665 4.40976e-20)
(-0.00770713 0.0241677 -2.20973e-21)
(-0.0248439 0.0485298 -2.71845e-20)
(-0.0468366 0.0607837 -1.46332e-20)
(-0.0673317 0.0661683 -8.52979e-20)
(-0.0863866 0.068009 -4.44703e-20)
(-0.102613 0.0683391 1.64191e-19)
(-0.11581 0.0681996 -5.9657e-20)
(-0.125479 0.0680073 -2.56894e-20)
(-0.131624 0.0679398 -1.03688e-20)
(-0.132816 0.0674887 -8.00276e-20)
(-0.131529 0.0677995 -6.48216e-20)
(-0.119452 0.0646438 -1.82765e-19)
(-0.112613 0.0677333 -1.3925e-19)
(-0.0780257 0.058988 9.71025e-20)
(-0.00853747 0.0262471 -7.24259e-20)
(-0.0255968 0.0530821 1.28946e-19)
(-0.0461208 0.0667187 2.92767e-20)
(-0.0645007 0.0727204 1.03004e-19)
(-0.0808247 0.0747066 5.8754e-21)
(-0.093773 0.0749152 -1.72984e-20)
(-0.103099 0.0745138 -1.21622e-20)
(-0.108205 0.0739805 2.54839e-19)
(-0.109174 0.0735377 -2.84862e-19)
(-0.104001 0.0725642 1.27551e-20)
(-0.0966102 0.0725303 2.53192e-20)
(-0.0751022 0.068203 1.3391e-19)
(-0.0620323 0.0710102 -1.64697e-19)
(-0.0144786 0.0611676 8.41084e-20)
(-0.00940587 0.0279761 -1.56814e-19)
(-0.0264244 0.0570104 -5.46005e-20)
(-0.0454253 0.0719164 9.7588e-21)
(-0.061565 0.0784809 3.16183e-20)
(-0.0749769 0.08057 -2.0873e-19)
(-0.0844292 0.0806032 6.4733e-20)
(-0.0896495 0.079867 -5.5251e-20)
(-0.0899403 0.0789048 -1.74441e-19)
(-0.0855381 0.0779812 1.24925e-19)
(-0.0737063 0.076403 7.0568e-20)
(-0.0602269 0.075795 5.0602e-20)
(-0.0291476 0.0707587 2.33173e-19)
(-0.00978757 0.072079 2.53517e-19)
(0.0501842 0.0618344 -7.77539e-20)
(-0.0102973 0.0293541 1.76187e-19)
(-0.0273215 0.0602931 -1.69457e-19)
(-0.0447776 0.0763338 1.38272e-19)
(-0.0585884 0.083392 -2.20484e-19)
(-0.0689482 0.0855332 3.99106e-21)
(-0.0747336 0.0853342 -1.99489e-19)
(-0.0756681 0.0841907 -6.44688e-20)
(-0.0709554 0.0827162 1.42723e-19)
(-0.0610567 0.0811989 1.77951e-19)
(-0.0424072 0.0790306 1.14088e-19)
(-0.0227263 0.0774647 8.53668e-22)
(0.0178925 0.072006 -3.05278e-19)
(0.0429166 0.0716509 1.37336e-19)
(0.116498 0.0606167 -1.3963e-19)
(-0.011199 0.0303898 -6.10955e-20)
(-0.028283 0.0629221 -1.18621e-19)
(-0.0442021 0.0799407 -1.57956e-19)
(-0.0556287 0.0874074 3.3208e-19)
(-0.062834 0.0895413 2.49089e-19)
(-0.0648219 0.089051 1.68978e-19)
(-0.0613345 0.0874296 2.30634e-19)
(-0.0514796 0.0853686 -1.45488e-19)
(-0.0359645 0.0831159 -2.64006e-19)
(-0.0104528 0.0804238 -2.63572e-19)
(0.0154041 0.0776371 2.37888e-19)
(0.0662724 0.0715288 1.73691e-19)
(0.0955288 0.0702764 -1.51966e-19)
(0.184674 0.0576819 -4.00361e-20)
(-0.0121007 0.0311008 1.88981e-19)
(-0.0293037 0.0649027 1.83938e-19)
(-0.0437184 0.0827207 -7.65904e-20)
(-0.0527339 0.0904936 2.0993e-19)
(-0.056713 0.0925514 -1.19765e-19)
(-0.0548031 0.0917093 -2.25992e-19)
(-0.0467845 0.0895435 -1.2356e-19)
(-0.0316851 0.0868358 9.5287e-20)
(-0.0104232 0.0837412 1.58107e-19)
(0.0221122 0.0805082 -2.02786e-20)
(0.053944 0.0764556 -1.16666e-19)
(0.116163 0.0696906 -2.14038e-19)
(0.148365 0.067616 -1.03676e-21)
(0.255679 0.0535328 1.17195e-19)
(-0.0129953 0.0315119 -6.38753e-20)
(-0.0303783 0.0662526 1.19027e-19)
(-0.0433391 0.0846708 1.77552e-19)
(-0.0499374 0.0926308 -2.78575e-19)
(-0.0506395 0.0945345 4.23284e-19)
(-0.044748 0.0932799 1.33128e-19)
(-0.032091 0.0905106 2.38248e-19)
(-0.0116252 0.0871105 -1.99917e-19)
(0.015521 0.0831274 2.67207e-19)
(0.0553941 0.0793387 2.44196e-19)
(0.0932036 0.0738646 -5.98467e-20)
(0.168051 0.0669633 -1.40033e-19)
(0.202302 0.0635199 1.28158e-19)
(0.331223 0.0487685 2.2028e-20)
(-0.0138792 0.031654 -1.72513e-19)
(-0.0315005 0.0670004 4.92477e-20)
(-0.0430679 0.0858019 8.70923e-20)
(-0.0472535 0.0938135 1.04704e-19)
(-0.0446356 0.0954768 -3.05471e-19)
(-0.0346755 0.0937499 -3.32081e-20)
(-0.0172482 0.0903302 -5.98559e-20)
(0.00877157 0.0862088 2.81553e-19)
(0.0420613 0.0812988 -5.67022e-20)
(0.0897136 0.0770967 1.4868e-19)
(0.133948 0.0698873 -5.35436e-20)
(0.22281 0.0637752 2.78033e-19)
(0.258904 0.0580899 -5.104e-20)
(0.413245 0.0440895 -1.1326e-19)
(-0.0147522 0.0315629 2.82494e-20)
(-0.0326624 0.0671836 2.11758e-19)
(-0.0428973 0.0861387 -1.27458e-19)
(-0.0446725 0.0940516 1.02515e-19)
(-0.0386821 0.0953817 -1.32044e-19)
(-0.0245378 0.0931262 3.80348e-20)
(-0.00214685 0.0890258 -1.63026e-19)
(0.0297236 0.0841874 -1.4515e-19)
(0.0696327 0.0783322 -4.62446e-19)
(0.125693 0.0739806 -3.3723e-19)
(0.177423 0.0647317 -1.99648e-19)
(0.281531 0.0605333 -4.33436e-19)
(0.320473 0.051707 -1.1998e-19)
(0.503131 0.0402225 -3.59582e-21)
(-0.0156176 0.0312766 -1.9335e-19)
(-0.0338531 0.0668462 -5.08735e-19)
(-0.042806 0.085719 -2.43265e-19)
(-0.0421562 0.0933708 -3.33683e-19)
(-0.03271 0.0942712 3.42385e-19)
(-0.0142082 0.0914388 -5.39612e-20)
(0.013447 0.0866488 -6.51615e-20)
(0.0516299 0.0811398 -3.3132e-19)
(0.0989259 0.0743777 4.3525e-19)
(0.164258 0.0702072 1.73356e-19)
(0.225321 0.0588371 2.50927e-19)
(0.34531 0.0575631 6.4976e-20)
(0.389772 0.0451465 3.43964e-19)
(0.600888 0.0378018 -2.25284e-19)
(-0.0164807 0.030833 2.26863e-19)
(-0.0350604 0.0660433 -7.74571e-20)
(-0.042754 0.0845883 -2.31012e-19)
(-0.0396325 0.0918117 -1.64638e-20)
(-0.0265919 0.0921877 5.0585e-20)
(-0.00346635 0.0887432 2.07405e-19)
(0.0299079 0.0832846 1.77902e-20)
(0.0750894 0.0772017 9.31196e-20)
(0.130889 0.0696654 -5.26081e-19)
(0.206602 0.0660106 5.33806e-20)
(0.27958 0.0528984 -1.02341e-21)
(0.415046 0.055056 1.93181e-19)
(0.46927 0.0395691 -5.07415e-20)
(0.70458 0.0372955 1.91322e-19)
(-0.0173469 0.0302692 -7.27192e-20)
(-0.0362684 0.0648329 1.39467e-19)
(-0.0426837 0.0828003 5.48952e-19)
(-0.0369897 0.0894308 2.38468e-19)
(-0.0201343 0.0891949 -1.32386e-19)
(0.00801104 0.0851233 -2.49371e-20)
(0.0477605 0.0790575 -2.25808e-19)
(0.100901 0.0725574 3.1279e-19)
(0.166684 0.0645141 2.6707e-19)
(0.2541 0.061648 -2.80555e-19)
(0.341972 0.0477976 -5.12771e-20)
(0.491294 0.0531345 6.91521e-20)
(0.560017 0.0362172 -2.08473e-19)
(0.810397 0.0389524 -2.02578e-19)
(-0.0182233 0.0296216 -6.50171e-20)
(-0.0374511 0.0632683 -2.97969e-20)
(-0.0425184 0.0804201 5.68577e-20)
(-0.0340749 0.0862994 -2.48719e-19)
(-0.0130729 0.0853785 1.99481e-20)
(0.0206563 0.0806935 -3.6547e-19)
(0.0676782 0.0741342 -9.25733e-21)
(0.130041 0.0674447 -2.35122e-19)
(0.207594 0.0593307 -6.95247e-20)
(0.308156 0.0574386 1.80932e-19)
(0.413582 0.0444108 -2.00743e-19)
(0.574075 0.0520203 -4.92446e-19)
(0.660625 0.03595 2.69277e-19)
(0.913399 0.0427193 4.3572e-19)
(-0.019117 0.0289218 -5.48236e-20)
(-0.0385745 0.061401 -3.15281e-20)
(-0.0421573 0.0775184 7.37347e-20)
(-0.0306907 0.0825016 4.90032e-19)
(-0.00506988 0.0808461 1.64669e-19)
(0.0350089 0.075601 1.83459e-19)
(0.0904663 0.0687269 6.63692e-20)
(0.163606 0.0621571 6.24202e-20)
(0.254873 0.0545884 -2.01645e-21)
(0.369971 0.0538168 -1.11654e-19)
(0.494347 0.04337 2.06781e-19)
(0.662594 0.0521285 6.23778e-20)
(0.767018 0.0389308 -4.65173e-20)
(1.00864 0.0481855 -5.1694e-19)
(-0.039596 0.0592811 -3.1953e-20)
(-0.0414753 0.0741679 -4.71801e-19)
(-0.0265953 0.078133 -2.97716e-19)
(0.00428347 0.0757262 -1.86072e-19)
(0.0517046 0.0700251 1.6538e-19)
(0.117026 0.0630942 2.23531e-19)
(0.202726 0.0570437 4.95129e-20)
(0.30956 0.0507845 -9.83459e-20)
(0.440206 0.0513472 3.50256e-19)
(0.582857 0.0449261 2.85224e-19)
(0.754913 0.0539288 1.15189e-19)
(0.87329 0.0446681 -1.44191e-19)
(1.09221 0.0546632 5.73484e-19)
(-0.0404626 0.0569539 -8.3758e-20)
(-0.0403227 0.0704421 2.06301e-19)
(-0.0215037 0.0732983 2.30394e-19)
(0.0154601 0.0701666 1.24002e-19)
(0.0714541 0.064177 4.26191e-20)
(0.148301 0.0575385 1.01892e-19)
(0.248433 0.052506 -1.67617e-19)
(0.372266 0.0483897 2.76503e-19)
(0.518625 0.0506384 -1.75567e-19)
(0.676472 0.0489783 -1.4823e-19)
(0.847893 0.0576546 -5.18346e-20)
(0.973305 0.052312 -2.3563e-19)
(1.16185 0.0613928 -4.97889e-19)
(-0.0411074 0.0544565 3.751e-19)
(-0.0385264 0.0664131 2.82615e-19)
(-0.0150919 0.0681087 -2.52689e-19)
(0.0289847 0.064332 -4.54054e-20)
(0.0950105 0.0582962 -4.20435e-21)
(0.185197 0.0524005 1.83169e-19)
(0.301508 0.0489829 3.30361e-19)
(0.442966 0.0478025 -1.92937e-19)
(0.603836 0.0521685 9.02297e-20)
(0.771684 0.0551882 -2.68683e-19)
(0.937665 0.0631273 1.26068e-19)
(1.0622 0.0609738 3.30457e-19)
(1.217 0.0677312 -8.38408e-20)
(-0.0414504 0.0518163 2.21248e-19)
(-0.0358905 0.0621497 -2.77878e-19)
(-0.00700366 0.06268 5.80869e-20)
(0.0454157 0.0584009 -8.331e-20)
(0.123126 0.0526473 1.43106e-19)
(0.228493 0.0480479 -2.29769e-19)
(0.362308 0.04692 2.76995e-20)
(0.520836 0.0493093 1.9653e-19)
(0.693308 0.0561207 -3.80025e-19)
(0.86465 0.0630668 3.00185e-19)
(1.02049 0.0698386 -2.55207e-19)
(1.13716 0.0699327 1.71184e-20)
(1.25848 0.0732518 6.04554e-19)
(-0.0322001 0.0577163 -3.38104e-19)
(0.00314089 0.0571301 -1.56822e-19)
(0.0653233 0.0525632 -2.84388e-19)
(0.156501 0.0475147 -3.91641e-19)
(0.278731 0.0448599 -1.65393e-19)
(0.430604 0.0467187 -6.94091e-20)
(0.604189 0.0530392 -4.99738e-19)
(0.783721 0.0623294 1.26967e-19)
(0.951793 0.0720298 5.3156e-21)
(1.09356 0.077191 2.68827e-19)
(1.19732 0.0787234 -1.99986e-19)
(1.28795 0.0776775 6.78698e-20)
(-0.0272243 0.053172 6.21901e-19)
(0.0157347 0.0515772 -6.33171e-20)
(0.0892641 0.0470178 1.45546e-19)
(0.195721 0.0431981 -1.71908e-19)
(0.3361 0.0432028 2.59729e-19)
(0.505471 0.0486693 -1.83797e-20)
(0.690582 0.0589221 4.4229e-20)
(0.871547 0.0703496 1.82837e-19)
(1.03033 0.0814693 -8.79516e-20)
(1.15539 0.0847175 -2.926e-19)
(1.24324 0.0870837 -3.10677e-20)
(1.30749 0.0807747 -4.79878e-19)
(-0.0207213 0.0485705 -5.41982e-19)
(0.0311727 0.0461402 5.33352e-19)
(0.117752 0.0419723 6.77818e-20)
(0.241193 0.0400055 -4.17455e-20)
(0.400328 0.0433963 -4.15991e-19)
(0.585278 0.0528879 -2.93385e-19)
(0.777116 0.0666812 2.84128e-19)
(0.953654 0.0795899 7.5956e-20)
(1.0986 0.0908558 7.12899e-20)
(1.20569 0.0921697 4.79907e-19)
(1.27644 0.0947225 -2.92258e-19)
(1.31926 0.0822547 3.79409e-20)
(-0.0124426 0.043961 5.98274e-19)
(0.0498398 0.0409386 -1.89267e-19)
(0.151229 0.037643 -1.08964e-19)
(0.293072 0.0382416 5.29442e-19)
(0.470608 0.04567 -7.30953e-20)
(0.667817 0.0592813 3.9053e-19)
(0.860862 0.0758817 -3.00133e-19)
(1.02773 0.0894463 -8.86955e-20)
(1.15599 0.0998279 -8.38898e-20)
(1.24509 0.0994246 -4.09998e-19)
(1.2991 0.101047 2.11057e-19)
(1.32595 0.0821226 -2.96767e-20)
(0.0720997 0.0360961 1.45774e-19)
(0.190028 0.0342569 1.4301e-19)
(0.351189 0.0381874 -3.64756e-19)
(0.545588 0.0501167 1.91395e-19)
(0.750565 0.067561 2.03263e-20)
(0.939286 0.0860199 3.36649e-19)
(1.09244 0.0994032 1.16726e-20)
(1.20279 0.108212 1.96601e-19)
(1.27469 0.106263 2.89691e-19)
(1.31375 0.105574 4.42298e-21)
(1.33409 0.0882289 4.52142e-19)
(0.0982827 0.0317444 -2.57147e-19)
(0.234337 0.0320509 -2.65736e-19)
(0.414988 0.0400672 -1.96559e-19)
(0.623462 0.0566639 1.46527e-19)
(0.831029 0.077305 1.09867e-19)
(1.01053 0.0966123 8.34916e-20)
(1.14735 0.109089 -1.09119e-19)
(1.23981 0.11595 6.77175e-20)
(1.29597 0.112378 -1.04029e-19)
(1.32344 0.110083 2.20926e-19)
(1.3367 0.0921893 -8.69882e-21)
(0.284151 0.0312655 6.91666e-20)
(0.483511 0.0440093 4.07989e-19)
(0.702157 0.0650801 2.06782e-19)
(0.907051 0.088043 4.24925e-20)
(1.07349 0.107257 -2.42494e-19)
(1.19273 0.118278 1.26563e-19)
(1.2682 0.122998 3.87208e-20)
(1.31069 0.117955 -1.1701e-19)
(1.32872 0.11403 -2.23082e-20)
(1.33646 0.0963983 -4.63018e-19)
(0.339223 0.0321277 2.99129e-19)
(0.555425 0.0500136 4.31413e-20)
(0.779578 0.0750185 -1.9499e-19)
(0.977005 0.0993309 4.10738e-20)
(1.12778 0.117661 -1.69452e-19)
(1.2293 0.126852 -1.43321e-20)
(1.2893 0.129409 -1.02568e-19)
(1.32019 0.123014 -5.3267e-20)
(1.33088 0.117775 -2.67916e-19)
(1.33448 0.100226 2.68003e-20)
(0.399031 0.0348218 -4.29156e-19)
(0.629134 0.0579438 -5.00486e-19)
(0.853843 0.0860819 -1.98778e-19)
(1.03987 0.110798 -2.18937e-19)
(1.17353 0.127631 7.19067e-20)
(1.25804 0.134778 -1.30257e-19)
(1.30437 0.135247 -1.13928e-19)
(1.32572 0.127678 -1.19432e-20)
(1.33078 0.121306 -1.52836e-19)
(1.33113 0.103959 3.82896e-19)
(0.702937 0.0675514 4.44818e-19)
(0.923447 0.0978828 -1.76084e-19)
(1.09516 0.122163 -1.0582e-19)
(1.21129 0.137062 8.2148e-20)
(1.28003 0.142079 2.45636e-19)
(1.3146 0.140606 6.52102e-20)
(1.32825 0.132035 -1.26239e-19)
(1.32906 0.124725 8.0167e-20)
(1.32701 0.10759 -8.52085e-20)
(0.775201 0.0785218 1.43631e-19)
(0.987331 0.110083 5.32426e-22)
(1.14287 0.133231 -1.29343e-19)
(1.2418 0.145915 -8.29637e-20)
(1.29634 0.148815 1.4655e-19)
(1.32102 0.145578 8.07153e-20)
(1.32858 0.136173 1.62795e-19)
(1.32622 0.128072 3.78336e-19)
(1.32236 0.111186 -2.05113e-19)
(1.04487 0.122412 3.88953e-19)
(1.18329 0.143883 2.35971e-19)
(1.26593 0.154198 1.2667e-19)
(1.30798 0.155063 -5.01597e-19)
(1.32449 0.150254 -1.0059e-19)
(1.3273 0.140166 -9.1899e-20)
(1.32261 0.131393 7.74419e-21)
(1.3174 0.114766 -8.60973e-21)
(1.21695 0.154057 -2.50707e-19)
(1.28455 0.161951 -2.69536e-19)
(1.31585 0.160906 1.9734e-19)
(1.32571 0.154716 2.38086e-20)
(1.32486 0.144072 1.88229e-19)
(1.31847 0.134716 -6.3609e-20)
(1.31223 0.118353 2.06382e-19)
(1.24448 0.163734 3.03381e-19)
(1.29852 0.169232 4.40436e-19)
(1.32069 0.166428 -1.08478e-20)
(1.32523 0.159033 1.24412e-20)
(1.3216 0.147936 -2.39885e-19)
(1.31397 0.138061 -1.34172e-19)
(1.30695 0.121957 -8.5673e-20)
(1.30861 0.176111 -6.23399e-20)
(1.32316 0.171708 -2.05936e-19)
(1.32349 0.163265 1.05299e-19)
(1.31775 0.151791 -9.55129e-20)
(1.30922 0.14144 1.54312e-19)
(1.30159 0.125583 1.19139e-19)
(1.32377 0.176814 3.20682e-19)
(1.3208 0.167458 -1.15278e-19)
(1.31349 0.15566 7.61517e-20)
(1.30429 0.144862 -7.16462e-20)
(1.29619 0.129233 -1.14996e-19)
(1.3174 0.171646 -1.93508e-19)
(1.30891 0.159558 1.44315e-19)
(1.29923 0.148329 6.81393e-20)
(1.29074 0.132907 3.56332e-20)
(1.3041 0.163494 -1.15887e-19)
(1.29406 0.151841 5.19851e-20)
(1.28526 0.136601 1.06627e-19)
(1.28879 0.155395 -1.37879e-19)
(1.27975 0.140311 2.45928e-20)
(1.27419 0.144032 -9.2418e-20)
(1.2742 -0.144034 -4.43389e-20)
(1.29912 -0.167474 -7.84223e-20)
(1.28882 -0.155399 -1.40889e-19)
(1.27976 -0.140313 5.8185e-20)
(1.31351 -0.175861 2.88858e-19)
(1.30412 -0.163498 -1.1547e-19)
(1.29408 -0.151845 1.11753e-19)
(1.28528 -0.136603 8.15283e-20)
(1.31743 -0.171652 -1.74807e-19)
(1.30894 -0.159562 1.61885e-19)
(1.29926 -0.148333 2.82245e-20)
(1.29076 -0.132909 6.68953e-20)
(1.32381 -0.176824 7.98099e-21)
(1.32083 -0.167464 -5.64753e-20)
(1.31351 -0.155664 8.3621e-20)
(1.30432 -0.144866 -8.85999e-20)
(1.29621 -0.129236 -1.31714e-19)
(1.30867 -0.176124 -3.93505e-19)
(1.3232 -0.171718 -1.38931e-19)
(1.32352 -0.163272 4.55344e-20)
(1.31778 -0.151795 -4.4183e-20)
(1.30925 -0.141444 1.08867e-19)
(1.30162 -0.125585 1.42304e-19)
(1.24456 -0.163751 6.59402e-20)
(1.29859 -0.169246 4.17143e-19)
(1.32074 -0.166439 2.68306e-20)
(1.32527 -0.15904 9.74609e-23)
(1.32163 -0.14794 -1.70271e-19)
(1.314 -0.138064 -1.39047e-19)
(1.30698 -0.121959 -1.2176e-19)
(1.21703 -0.154074 -2.5231e-19)
(1.28462 -0.161965 -2.77558e-19)
(1.3159 -0.160917 2.74496e-19)
(1.32575 -0.154723 3.92052e-20)
(1.32489 -0.144076 1.50559e-19)
(1.3185 -0.134719 8.35685e-21)
(1.31226 -0.118355 1.01893e-19)
(1.04497 -0.122429 -3.20411e-20)
(1.18338 -0.1439 3.24039e-19)
(1.266 -0.154213 1.89697e-20)
(1.30804 -0.155075 -4.83755e-19)
(1.32454 -0.150262 -5.5576e-20)
(1.32733 -0.140171 -4.07262e-20)
(1.32264 -0.131396 -1.77743e-20)
(1.31743 -0.114768 4.94551e-21)
(0.775277 -0.0785352 -3.00732e-19)
(0.987421 -0.1101 -4.04368e-21)
(1.14296 -0.133248 -5.69781e-20)
(1.24188 -0.145931 1.23364e-21)
(1.2964 -0.148828 9.4736e-20)
(1.32107 -0.145587 8.27787e-20)
(1.32861 -0.136179 1.66596e-19)
(1.32626 -0.128075 3.5234e-19)
(1.32239 -0.111187 -2.08281e-19)
(0.703005 -0.0675634 3.83884e-19)
(0.923533 -0.0978983 -2.20796e-19)
(1.09525 -0.122179 -4.65165e-20)
(1.21137 -0.137078 1.34999e-19)
(1.28009 -0.142092 2.51358e-19)
(1.31466 -0.140616 1.57716e-20)
(1.32829 -0.13204 -9.29286e-20)
(1.3291 -0.124728 1.14864e-19)
(1.32705 -0.107591 -1.50277e-19)
(0.399064 -0.0348285 -1.57252e-19)
(0.629194 -0.0579545 -5.89939e-19)
(0.853924 -0.0860964 -1.60163e-19)
(1.03996 -0.110814 -1.97223e-19)
(1.17362 -0.127647 5.22168e-20)
(1.25811 -0.134791 -1.07146e-19)
(1.30443 -0.135258 -6.87243e-20)
(1.32576 -0.127685 -1.30959e-20)
(1.33082 -0.12131 -1.40034e-19)
(1.33116 -0.103959 3.05625e-19)
(0.339248 -0.032134 2.91055e-19)
(0.555476 -0.0500232 1.06883e-19)
(0.779652 -0.0750319 -2.42499e-19)
(0.977093 -0.0993465 9.03691e-20)
(1.12786 -0.117677 -1.75538e-19)
(1.22938 -0.126866 -1.61142e-19)
(1.28936 -0.129419 4.01004e-20)
(1.32024 -0.123021 -5.33574e-20)
(1.33093 -0.117779 -2.71078e-19)
(1.33451 -0.100227 3.52982e-20)
(0.128674 -0.0280348 3.98601e-20)
(0.284169 -0.0312717 8.41144e-20)
(0.483553 -0.0440181 3.99477e-19)
(0.702223 -0.0650924 2.28642e-19)
(0.907134 -0.0880579 -7.93405e-20)
(1.07358 -0.107273 -1.45215e-19)
(1.19282 -0.118292 4.50088e-20)
(1.26827 -0.12301 -2.32252e-21)
(1.31074 -0.117963 -6.08589e-21)
(1.32876 -0.114034 -1.83756e-20)
(1.3365 -0.0963988 -5.12763e-19)
(0.0982819 -0.0317504 -2.10735e-19)
(0.23435 -0.0320574 -3.71312e-19)
(0.415022 -0.0400755 -4.76703e-20)
(0.62352 -0.0566752 1.05054e-19)
(0.831107 -0.077319 1.61515e-20)
(1.01062 -0.0966275 1.21718e-19)
(1.14744 -0.109103 -8.10556e-20)
(1.23988 -0.115962 -7.4039e-20)
(1.29603 -0.112386 1.06461e-19)
(1.32349 -0.110087 1.26946e-19)
(1.33674 -0.0921896 -7.1933e-20)
(0.072097 -0.0361029 8.02974e-20)
(0.190037 -0.0342641 2.00802e-19)
(0.351215 -0.0381957 -4.03517e-19)
(0.545637 -0.0501273 1.56806e-19)
(0.750636 -0.0675741 1.84097e-20)
(0.939371 -0.0860346 3.69883e-19)
(1.09253 -0.0994175 1.41657e-19)
(1.20287 -0.108225 8.48834e-20)
(1.27477 -0.106271 2.19071e-19)
(1.31381 -0.105579 1.38406e-19)
(1.33414 -0.0882293 3.97808e-19)
(-0.0124502 -0.0439682 -1.67965e-19)
(0.0498357 -0.0409465 -2.26898e-19)
(0.151234 -0.0376512 -6.8119e-20)
(0.293092 -0.0382504 5.82361e-19)
(0.470649 -0.0456803 -5.99778e-20)
(0.66788 -0.0592938 2.41093e-19)
(0.860942 -0.0758959 -2.35496e-19)
(1.02782 -0.0894605 4.19394e-21)
(1.15608 -0.0998405 -1.40434e-19)
(1.24517 -0.0994338 -4.74654e-19)
(1.29916 -0.101052 2.98255e-19)
(1.32601 -0.0821226 -3.15507e-20)
(-0.0207289 -0.0485786 -6.44151e-19)
(0.0311678 -0.0461493 6.27636e-19)
(0.117754 -0.0419817 6.98574e-20)
(0.241208 -0.0400151 1.11698e-20)
(0.400361 -0.0434068 -4.02745e-19)
(0.585333 -0.0528999 -3.38595e-19)
(0.77719 -0.0666948 2.56141e-19)
(0.953741 -0.0796038 7.63395e-21)
(1.09868 -0.0908686 1.58268e-19)
(1.20577 -0.0921791 4.14104e-19)
(1.27651 -0.0947283 -2.03205e-19)
(1.31932 -0.0822549 3.68634e-20)
(-0.0272316 -0.0531811 7.0151e-19)
(0.0157295 -0.0515877 -1.6004e-19)
(0.0892646 -0.0470287 1.26514e-19)
(0.195732 -0.043209 -1.42725e-19)
(0.336126 -0.0432139 3.43699e-19)
(0.505517 -0.0486813 -2.1056e-20)
(0.690648 -0.0589353 -1.54176e-20)
(0.871629 -0.070363 3.17003e-19)
(1.03042 -0.081482 -2.03357e-19)
(1.15547 -0.0847271 -2.41051e-19)
(1.24332 -0.08709 -1.10932e-19)
(1.30755 -0.0807752 -4.39227e-19)
(-0.0414058 -0.0490605 -7.46781e-20)
(-0.0322071 -0.0577265 -3.06322e-19)
(0.00313571 -0.057142 -1.23762e-19)
(0.0653229 -0.0525757 -3.1233e-19)
(0.156509 -0.0475271 -4.45708e-19)
(0.278751 -0.0448721 -8.68921e-20)
(0.430641 -0.0467311 -5.90321e-20)
(0.604247 -0.0530522 -5.07701e-19)
(0.783797 -0.0623425 1.15085e-19)
(0.95188 -0.0720424 -8.41036e-22)
(1.09365 -0.0772006 2.39562e-19)
(1.1974 -0.0787301 -1.89124e-19)
(1.28802 -0.0776786 -4.71238e-21)
(-0.0414562 -0.0518242 2.6178e-19)
(-0.0358971 -0.0621612 -3.01522e-19)
(-0.00700856 -0.0626936 5.69475e-20)
(0.0454148 -0.0584152 -1.81774e-20)
(0.123132 -0.0526615 1.00922e-19)
(0.228509 -0.0480616 -2.07645e-19)
(0.362339 -0.0469334 8.57349e-21)
(0.520885 -0.0493226 2.02939e-19)
(0.693376 -0.0561335 -3.844e-19)
(0.864734 -0.0630793 1.78865e-19)
(1.02058 -0.0698481 -1.31844e-19)
(1.13725 -0.0699396 2.217e-20)
(1.25855 -0.0732533 5.45276e-19)
(-0.0411129 -0.0544651 4.06104e-19)
(-0.0385324 -0.0664259 2.58366e-19)
(-0.0150964 -0.0681239 -3.59487e-19)
(0.0289839 -0.0643481 4.23128e-20)
(0.0950156 -0.0583123 -1.09427e-19)
(0.18521 -0.0524158 2.55294e-19)
(0.301534 -0.0489975 3.81371e-19)
(0.443008 -0.0478164 -1.98291e-19)
(0.603896 -0.0521815 9.7496e-20)
(0.771761 -0.0552006 -2.59198e-19)
(0.937754 -0.0631365 -4.9536e-21)
(1.0623 -0.0609807 3.28505e-19)
(1.21708 -0.0677331 -1.93574e-20)
(-0.0404678 -0.0569634 -1.46522e-19)
(-0.0403282 -0.0704563 2.59877e-19)
(-0.0215076 -0.0733152 2.82353e-19)
(0.0154597 -0.0701846 1.07006e-19)
(0.0714588 -0.064195 -8.04818e-20)
(0.148313 -0.0575558 2.58831e-19)
(0.248455 -0.0525223 -2.52316e-19)
(0.372302 -0.0484047 3.49117e-19)
(0.518677 -0.0506519 -2.3517e-19)
(0.676542 -0.0489909 -2.46259e-19)
(0.847977 -0.0576637 8.19281e-20)
(0.973402 -0.0523188 -3.37086e-19)
(1.16194 -0.0613948 -3.85938e-19)
(-0.039601 -0.0592915 -9.80031e-21)
(-0.0414803 -0.0741835 -4.32542e-19)
(-0.0265986 -0.0781517 -3.2072e-19)
(0.00428356 -0.0757461 -1.4993e-19)
(0.0517093 -0.0700451 9.76355e-20)
(0.117037 -0.0631134 1.77111e-19)
(0.202746 -0.0570618 1.10011e-19)
(0.309591 -0.0508009 -1.35483e-19)
(0.440251 -0.0513617 4.43492e-19)
(0.582919 -0.0449391 2.28079e-19)
(0.754991 -0.053938 1.5699e-19)
(0.873385 -0.0446746 -9.66638e-20)
(1.09231 -0.0546653 5.94554e-19)
(-0.0191192 -0.0289258 6.8741e-20)
(-0.0385792 -0.0614125 7.61853e-20)
(-0.0421619 -0.0775355 8.28311e-21)
(-0.0306934 -0.082522 4.28969e-19)
(-0.00506919 -0.0808679 1.32191e-19)
(0.035014 -0.0756229 2.54541e-19)
(0.0904769 -0.068748 -6.17235e-20)
(0.163624 -0.0621769 1.35666e-19)
(0.2549 -0.0546063 9.0781e-20)
(0.37001 -0.0538326 -1.6945e-19)
(0.494401 -0.0433835 2.09373e-19)
(0.662665 -0.0521383 6.7516e-20)
(0.767106 -0.038937 4.06786e-20)
(1.00873 -0.0481875 -6.32444e-19)
(-0.0182255 -0.0296261 -7.5664e-21)
(-0.0374557 -0.063281 7.22871e-20)
(-0.0425225 -0.0804389 -9.65955e-20)
(-0.034077 -0.0863216 -1.31734e-19)
(-0.0130716 -0.0854022 -2.2306e-20)
(0.0206618 -0.0807173 -4.25958e-19)
(0.0676888 -0.0741572 1.29688e-19)
(0.130058 -0.0674663 -3.55112e-19)
(0.207619 -0.0593502 -9.33297e-20)
(0.308191 -0.057456 2.85521e-19)
(0.413629 -0.0444249 -2.21615e-19)
(0.574138 -0.0520311 -4.21801e-19)
(0.660704 -0.0359559 2.37926e-19)
(0.913493 -0.0427211 4.5882e-19)
(-0.0173491 -0.0302742 -8.61345e-20)
(-0.0362729 -0.0648468 1.6307e-19)
(-0.0426876 -0.0828206 6.19615e-19)
(-0.0369913 -0.0894547 1.53684e-19)
(-0.0201325 -0.0892204 -1.91443e-19)
(0.00801699 -0.0851488 9.00724e-21)
(0.0477712 -0.0790822 -1.49647e-19)
(0.100917 -0.0725807 2.25147e-19)
(0.166707 -0.0645352 3.51766e-19)
(0.254131 -0.061667 -2.74073e-19)
(0.342014 -0.0478125 -2.89164e-20)
(0.491351 -0.0531466 2.06551e-20)
(0.560086 -0.036223 -2.26765e-19)
(0.810488 -0.0389541 -2.48692e-19)
(-0.0164829 -0.0308386 2.45608e-19)
(-0.0350648 -0.0660583 -1.4452e-19)
(-0.0427575 -0.0846102 -1.5724e-19)
(-0.0396336 -0.0918373 -4.23269e-20)
(-0.0265896 -0.0922149 -3.3434e-20)
(-0.00346006 -0.0887704 2.72248e-19)
(0.0299187 -0.0833109 5.56713e-20)
(0.0751053 -0.0772266 6.83776e-20)
(0.130911 -0.069688 -4.56364e-19)
(0.206631 -0.066031 -7.29651e-20)
(0.279617 -0.0529144 -1.6311e-20)
(0.415098 -0.0550693 3.63171e-19)
(0.469329 -0.0395752 -5.14779e-20)
(0.704665 -0.0372974 1.38133e-19)
(-0.0156199 -0.0312829 -1.24668e-19)
(-0.0338573 -0.0668626 -5.39477e-19)
(-0.0428093 -0.0857424 -2.74976e-19)
(-0.0421569 -0.093398 -3.2505e-19)
(-0.0327074 -0.0942999 3.45008e-19)
(-0.0142016 -0.0914675 -7.21056e-20)
(0.0134578 -0.0866765 -1.52756e-20)
(0.0516455 -0.081166 -4.44561e-19)
(0.0989465 -0.0744017 4.89942e-19)
(0.164285 -0.0702287 2.5779e-19)
(0.225355 -0.0588542 1.72425e-19)
(0.345357 -0.0575772 1.39309e-19)
(0.389823 -0.0451533 2.75052e-19)
(0.600965 -0.0378037 -1.87382e-19)
(-0.0147546 -0.0315698 1.37993e-20)
(-0.0326666 -0.0672013 2.10146e-19)
(-0.0429003 -0.0861635 -7.8926e-20)
(-0.044673 -0.0940804 5.54983e-21)
(-0.0386792 -0.0954118 -1.10242e-19)
(-0.0245312 -0.0931563 1.83739e-23)
(-0.00213612 -0.0890549 -1.02142e-19)
(0.0297388 -0.0842149 -6.13414e-20)
(0.0696524 -0.0783574 -4.50099e-19)
(0.125719 -0.0740031 -4.44977e-19)
(0.177453 -0.06475 -1.96841e-19)
(0.281574 -0.0605477 -3.47813e-19)
(0.320517 -0.0517146 -1.43397e-19)
(0.5032 -0.0402244 -3.06022e-20)
(-0.0138816 -0.0316616 -1.21593e-19)
(-0.0315046 -0.0670193 2.26272e-20)
(-0.0430707 -0.0858282 7.74176e-20)
(-0.0472538 -0.0938437 8.45705e-20)
(-0.0446326 -0.0955083 -2.77288e-19)
(-0.0346688 -0.0937812 -4.24433e-20)
(-0.0172377 -0.0903605 -2.7216e-20)
(0.00878631 -0.0862374 3.39612e-19)
(0.0420803 -0.0813252 -1.69068e-19)
(0.0897382 -0.0771201 1.53749e-19)
(0.133977 -0.0699066 -5.41385e-20)
(0.222849 -0.0637899 3.80175e-19)
(0.258943 -0.0580985 -1.13497e-19)
(0.413304 -0.0440912 -5.51065e-20)
(-0.0129977 -0.0315201 -1.95931e-20)
(-0.0303822 -0.0662728 7.07593e-20)
(-0.0433417 -0.0846985 2.0489e-19)
(-0.0499375 -0.0926623 -2.98362e-19)
(-0.0506365 -0.0945672 4.51879e-19)
(-0.0447415 -0.0933124 1.44407e-19)
(-0.0320808 -0.0905419 2.33489e-19)
(-0.0116111 -0.0871401 -2.6566e-19)
(0.0155392 -0.0831547 2.92763e-19)
(0.0554174 -0.0793628 3.31765e-19)
(0.0932303 -0.0738848 -1.93353e-19)
(0.168087 -0.0669781 -7.37728e-20)
(0.202338 -0.0635294 1.03758e-19)
(0.331275 -0.0487698 9.79025e-20)
(-0.012103 -0.0311098 2.67066e-19)
(-0.0293075 -0.0649242 1.379e-19)
(-0.0437208 -0.0827498 -6.01963e-20)
(-0.052734 -0.0905264 1.51371e-19)
(-0.05671 -0.0925853 -1.35466e-19)
(-0.0547968 -0.0917428 -1.78622e-19)
(-0.0467748 -0.0895759 -1.01634e-19)
(-0.0316716 -0.0868663 6.32983e-20)
(-0.0104059 -0.0837694 2.67906e-19)
(0.0221342 -0.080533 -1.25862e-19)
(0.0539693 -0.0764764 -1.21244e-19)
(0.116195 -0.0697055 -1.66814e-19)
(0.148398 -0.0676259 -3.98269e-20)
(0.255725 -0.0535337 1.82496e-19)
(-0.0112014 -0.0303996 -3.67798e-20)
(-0.0282866 -0.0629448 -1.29778e-19)
(-0.0442044 -0.0799711 -1.72721e-19)
(-0.0556287 -0.0874414 3.17394e-19)
(-0.0628312 -0.0895763 2.7195e-19)
(-0.0648159 -0.0890855 1.53855e-19)
(-0.0613253 -0.0874628 2.7173e-19)
(-0.0514669 -0.0853999 -1.30587e-19)
(-0.035948 -0.0831447 -3.59054e-19)
(-0.0104323 -0.0804494 -1.92796e-19)
(0.015428 -0.0776584 2.13009e-19)
(0.0663023 -0.071544 2.10771e-19)
(0.09556 -0.0702864 -1.86985e-19)
(0.184714 -0.0576824 -1.34702e-19)