# Force coefficients
# liftDir     : (0.000000e+00 1.000000e+00 0.000000e+00)
# dragDir     : (1.000000e+00 0.000000e+00 0.000000e+00)
# pitchAxis   : (0.000000e+00 0.000000e+00 1.000000e+00)
# magUInf     : 1.000000e+00
# lRef        : 1.000000e+00
# Aref        : 1.000000e-01
# CofR        : (0.000000e+00 0.000000e+00 0.000000e+00)
# Time        	Cm            	Cd            	Cl            	Cl(f)         	Cl(r)         
0.005         	-1.725089e-09	3.761441e+02	1.648419e-05	8.240368e-06	8.243818e-06
0.01          	-1.166598e-07	2.075516e+01	-7.059536e-06	-3.646428e-06	-3.413108e-06
0.015         	-6.473398e-08	2.778137e+01	7.437146e-07	3.071233e-07	4.365913e-07
0.02          	-8.674843e-08	2.085169e+01	-1.057224e-08	-9.203455e-08	8.146231e-08
0.025         	-8.140301e-08	1.812132e+01	4.454419e-07	1.413179e-07	3.041239e-07
0.03          	-7.374601e-08	1.619120e+01	4.434139e-07	1.479609e-07	2.954529e-07
0.035         	-6.661566e-08	1.483612e+01	3.752879e-07	1.210283e-07	2.542596e-07
0.04          	2.072389e-08	1.380096e+01	4.639637e-07	2.527058e-07	2.112580e-07
0.045         	6.860899e-08	1.297710e+01	4.631530e-07	3.001855e-07	1.629675e-07
0.05          	9.422370e-08	1.230002e+01	4.657626e-07	3.271050e-07	1.386576e-07
0.055         	1.069257e-07	1.173075e+01	4.879745e-07	3.509129e-07	1.370616e-07
0.06          	1.119834e-07	1.124352e+01	4.974290e-07	3.606980e-07	1.367311e-07
0.065         	1.124830e-07	1.082047e+01	4.974937e-07	3.612299e-07	1.362639e-07
0.07          	1.102662e-07	1.044875e+01	4.747681e-07	3.476503e-07	1.271178e-07
0.075         	1.556576e-07	1.011880e+01	4.552871e-07	3.833011e-07	7.198600e-08
0.08          	1.798053e-07	9.823389e+00	5.647084e-07	4.621595e-07	1.025489e-07
0.085         	1.915444e-07	9.556929e+00	6.178842e-07	5.004864e-07	1.173977e-07
0.09          	1.958448e-07	9.315004e+00	6.411217e-07	5.164057e-07	1.247160e-07
0.095         	1.956038e-07	9.094118e+00	6.591813e-07	5.251944e-07	1.339869e-07
0.1           	3.132334e-07	8.891390e+00	5.594801e-07	5.929734e-07	-3.349333e-08
0.105         	3.840700e-07	8.704541e+00	6.828759e-07	7.255079e-07	-4.263198e-08
0.11          	4.259752e-07	8.531608e+00	7.436169e-07	7.977837e-07	-5.416677e-08
0.115         	4.493467e-07	8.370971e+00	7.765310e-07	8.376122e-07	-6.108116e-08
0.12          	4.605151e-07	8.221273e+00	7.978679e-07	8.594491e-07	-6.158120e-08
0.125         	4.634981e-07	8.081341e+00	8.144954e-07	8.707458e-07	-5.625039e-08
0.13          	4.609350e-07	7.950188e+00	8.160253e-07	8.689476e-07	-5.292230e-08
0.135         	4.546078e-07	7.826952e+00	8.154212e-07	8.623184e-07	-4.689719e-08
0.14          	4.457455e-07	7.710884e+00	7.989860e-07	8.452385e-07	-4.625256e-08
0.145         	4.352072e-07	7.601334e+00	7.974627e-07	8.339386e-07	-3.647586e-08
0.15          	4.236059e-07	7.497730e+00	7.801483e-07	8.136800e-07	-3.353175e-08
0.155         	4.113781e-07	7.399576e+00	7.678732e-07	7.953147e-07	-2.744147e-08
0.16          	3.988327e-07	7.306407e+00	7.551462e-07	7.764058e-07	-2.125956e-08
0.165         	3.861916e-07	7.217841e+00	7.414018e-07	7.568925e-07	-1.549070e-08
0.17          	3.736175e-07	7.133524e+00	7.288976e-07	7.380663e-07	-9.168652e-09
0.175         	3.612234e-07	7.053140e+00	7.145190e-07	7.184828e-07	-3.963867e-09
0.18          	3.490888e-07	6.976381e+00	6.827226e-07	6.904501e-07	-7.727535e-09
0.185         	3.372680e-07	6.903022e+00	6.778538e-07	6.761949e-07	1.658886e-09
0.19          	3.257956e-07	6.832814e+00	6.634565e-07	6.575238e-07	5.932641e-09
0.195         	3.146954e-07	6.765547e+00	6.501195e-07	6.397552e-07	1.036434e-08
0.2           	3.039795e-07	6.701032e+00	6.309194e-07	6.194392e-07	1.148019e-08
0.205         	2.936528e-07	6.639089e+00	6.132076e-07	6.002566e-07	1.295097e-08
0.21          	3.349738e-07	6.579554e+00	4.031858e-07	5.365667e-07	-1.333810e-07
0.215         	3.601137e-07	6.522293e+00	5.599810e-07	6.401042e-07	-8.012317e-08
0.22          	3.751906e-07	6.467198e+00	6.431858e-07	6.967835e-07	-5.359767e-08
0.225         	3.836997e-07	6.414089e+00	6.785975e-07	7.229984e-07	-4.440093e-08
0.23          	4.924752e-07	6.362867e+00	5.225551e-07	7.537528e-07	-2.311977e-07
0.235         	5.673517e-07	6.313467e+00	6.947112e-07	9.147073e-07	-2.199961e-07
0.24          	6.195417e-07	6.265760e+00	7.979778e-07	1.018531e-06	-2.205528e-07
0.245         	6.558810e-07	6.219662e+00	8.353381e-07	1.073550e-06	-2.382119e-07
0.25          	6.807602e-07	6.175082e+00	9.087384e-07	1.135129e-06	-2.263910e-07
0.255         	6.971454e-07	6.131953e+00	8.998600e-07	1.147075e-06	-2.472154e-07
0.26          	7.071262e-07	6.090171e+00	9.409859e-07	1.177619e-06	-2.366333e-07
0.265         	7.121973e-07	6.049711e+00	8.687157e-07	1.146555e-06	-2.778394e-07
0.27          	7.134826e-07	6.010498e+00	9.171756e-07	1.172070e-06	-2.548948e-07
0.275         	7.118279e-07	5.972465e+00	9.319827e-07	1.177819e-06	-2.458366e-07
0.28          	7.078788e-07	5.935560e+00	9.037548e-07	1.159756e-06	-2.560014e-07
0.285         	7.021418e-07	5.899731e+00	9.239156e-07	1.164100e-06	-2.401841e-07
0.29          	6.950081e-07	5.864925e+00	9.306861e-07	1.160351e-06	-2.296651e-07
0.295         	6.867913e-07	5.831138e+00	8.869247e-07	1.130254e-06	-2.433290e-07
0.3           	6.777474e-07	5.798262e+00	8.911974e-07	1.123346e-06	-2.321487e-07
0.305         	6.680718e-07	5.766289e+00	8.502085e-07	1.093176e-06	-2.429676e-07
0.31          	6.579266e-07	5.735179e+00	8.466686e-07	1.081261e-06	-2.345923e-07
0.315         	6.474421e-07	5.704899e+00	8.538534e-07	1.074369e-06	-2.205153e-07
0.32          	6.367244e-07	5.675412e+00	8.362960e-07	1.054872e-06	-2.185764e-07
0.325         	6.258594e-07	5.646692e+00	8.226057e-07	1.037162e-06	-2.145566e-07
0.33          	6.149196e-07	5.618691e+00	8.187877e-07	1.024313e-06	-2.055258e-07
0.335         	6.039605e-07	5.591404e+00	8.341868e-07	1.021054e-06	-1.868671e-07
0.34          	5.930269e-07	5.564796e+00	8.364206e-07	1.011237e-06	-1.748166e-07
0.345         	5.821571e-07	5.538841e+00	8.379091e-07	1.001112e-06	-1.632026e-07
0.35          	5.713822e-07	5.513487e+00	8.184397e-07	9.806020e-07	-1.621623e-07
0.355         	5.607260e-07	5.488743e+00	8.146493e-07	9.680506e-07	-1.534013e-07
0.36          	5.502123e-07	5.464589e+00	8.329860e-07	9.667053e-07	-1.337193e-07
0.365         	5.398477e-07	5.441005e+00	8.166510e-07	9.481732e-07	-1.315222e-07
0.37          	5.296513e-07	5.417952e+00	8.049544e-07	9.321285e-07	-1.271741e-07
0.375         	5.196314e-07	5.395420e+00	7.970925e-07	9.181776e-07	-1.210851e-07
0.38          	5.097913e-07	5.373379e+00	7.891484e-07	9.043655e-07	-1.152171e-07
0.385         	5.001394e-07	5.351858e+00	8.119269e-07	9.061029e-07	-9.417594e-08
0.39          	4.906798e-07	5.330811e+00	7.865660e-07	8.839627e-07	-9.739679e-08
0.395         	4.814123e-07	5.310193e+00	7.818729e-07	8.723488e-07	-9.047589e-08
0.4           	4.723409e-07	5.290016e+00	7.798663e-07	8.622741e-07	-8.240776e-08
0.405         	4.634649e-07	5.270268e+00	7.374306e-07	8.321802e-07	-9.474953e-08
0.41          	4.547863e-07	5.250934e+00	7.329124e-07	8.212425e-07	-8.833011e-08
0.415         	4.462991e-07	5.231998e+00	7.274201e-07	8.100092e-07	-8.258907e-08
0.42          	4.380014e-07	5.213446e+00	7.201495e-07	7.980761e-07	-7.792664e-08
0.425         	4.298911e-07	5.195272e+00	6.931304e-07	7.764563e-07	-8.332583e-08
0.43          	4.219668e-07	5.177460e+00	6.137621e-07	7.288479e-07	-1.150857e-07
0.435         	4.142312e-07	5.160000e+00	6.145298e-07	7.214961e-07	-1.069663e-07
0.44          	4.066723e-07	5.142882e+00	6.171541e-07	7.152493e-07	-9.809526e-08
0.445         	3.992869e-07	5.126096e+00	6.062130e-07	7.023934e-07	-9.618037e-08
0.45          	3.920714e-07	5.109634e+00	6.288511e-07	7.064969e-07	-7.764579e-08
0.455         	3.850242e-07	5.093490e+00	6.534808e-07	7.117646e-07	-5.828384e-08
0.46          	3.781381e-07	5.077631e+00	6.280888e-07	6.921826e-07	-6.409373e-08
0.465         	3.714112e-07	5.062093e+00	6.776727e-07	7.102475e-07	-3.257485e-08
0.47          	3.648383e-07	5.046800e+00	6.258578e-07	6.777673e-07	-5.190943e-08
0.475         	3.584185e-07	5.031803e+00	6.639081e-07	6.903725e-07	-2.646442e-08
0.48          	3.521458e-07	5.017070e+00	6.667894e-07	6.855406e-07	-1.875113e-08
0.485         	3.460179e-07	5.002618e+00	6.990676e-07	6.955518e-07	3.515885e-09
0.49          	3.400303e-07	4.988418e+00	6.998997e-07	6.899802e-07	9.919560e-09
0.495         	3.341802e-07	4.974471e+00	7.112980e-07	6.898292e-07	2.146877e-08
0.5           	3.991970e-07	4.960738e+00	4.848918e-07	6.416429e-07	-1.567511e-07
0.505         	4.482253e-07	4.947276e+00	6.309750e-07	7.637127e-07	-1.327378e-07
0.51          	4.859668e-07	4.934037e+00	7.070821e-07	8.395079e-07	-1.324258e-07
0.515         	5.153926e-07	4.921016e+00	7.744599e-07	9.026226e-07	-1.281626e-07
0.52          	5.384732e-07	4.908249e+00	8.766111e-07	9.767788e-07	-1.001677e-07
0.525         	5.566026e-07	4.895674e+00	8.471517e-07	9.801784e-07	-1.330268e-07
0.53          	6.077297e-07	4.883286e+00	6.508696e-07	9.331645e-07	-2.822949e-07
0.535         	6.455146e-07	4.871113e+00	8.365254e-07	1.063777e-06	-2.272519e-07
0.54          	6.741610e-07	4.859137e+00	9.362832e-07	1.142303e-06	-2.060194e-07
0.545         	6.961875e-07	4.847361e+00	1.045290e-06	1.218833e-06	-1.735423e-07
0.55          	7.132073e-07	4.835762e+00	1.088199e-06	1.257307e-06	-1.691077e-07
0.555         	7.263076e-07	4.824352e+00	1.161919e-06	1.307267e-06	-1.453481e-07
0.56          	7.362636e-07	4.813121e+00	1.220847e-06	1.346687e-06	-1.258404e-07
0.565         	7.436595e-07	4.802064e+00	1.418782e-06	1.453050e-06	-3.426862e-08
0.57          	7.489306e-07	4.791178e+00	1.256895e-06	1.377378e-06	-1.204830e-07
0.575         	7.524426e-07	4.780460e+00	1.224272e-06	1.364579e-06	-1.403064e-07
0.58          	7.544757e-07	4.769901e+00	1.184808e-06	1.346880e-06	-1.620718e-07
0.585         	7.552606e-07	4.759504e+00	1.180295e-06	1.345408e-06	-1.651132e-07
0.59          	7.549829e-07	4.749266e+00	1.135963e-06	1.322964e-06	-1.870015e-07
0.595         	7.538005e-07	4.739166e+00	1.248834e-06	1.378217e-06	-1.293836e-07
0.6           	7.518373e-07	4.729226e+00	1.067687e-06	1.285681e-06	-2.179938e-07
0.605         	7.492133e-07	4.719431e+00	1.093734e-06	1.296080e-06	-2.023463e-07
0.61          	7.460170e-07	4.709777e+00	1.101497e-06	1.296766e-06	-1.952684e-07
0.615         	7.423289e-07	4.700262e+00	1.075869e-06	1.280263e-06	-2.043945e-07
0.62          	7.382161e-07	4.690887e+00	1.100940e-06	1.288686e-06	-1.877463e-07
0.625         	7.337456e-07	4.681644e+00	1.077644e-06	1.272568e-06	-1.949234e-07
0.63          	7.289597e-07	4.672537e+00	1.479952e-06	1.468936e-06	1.101622e-08
0.635         	7.239038e-07	4.663549e+00	1.279793e-06	1.363800e-06	-8.400742e-08
0.64          	7.186261e-07	4.654678e+00	1.292672e-06	1.364962e-06	-7.228997e-08
0.645         	7.131572e-07	4.645946e+00	1.364350e-06	1.395332e-06	-3.098209e-08
0.65          	7.075247e-07	4.637311e+00	1.326330e-06	1.370690e-06	-4.435951e-08
0.655         	7.017577e-07	4.628804e+00	1.331878e-06	1.367697e-06	-3.581848e-08
0.66          	6.958781e-07	4.620415e+00	1.364836e-06	1.378296e-06	-1.345984e-08
0.665         	6.899048e-07	4.612120e+00	1.334851e-06	1.357331e-06	-2.247902e-08
0.67          	6.838589e-07	4.603964e+00	1.378178e-06	1.372948e-06	5.230305e-09
0.675         	6.777478e-07	4.595901e+00	1.324324e-06	1.339910e-06	-1.558578e-08
0.68          	6.715989e-07	4.587954e+00	1.296227e-06	1.319713e-06	-2.348525e-08
0.685         	6.654144e-07	4.580109e+00	1.231584e-06	1.281206e-06	-4.962259e-08
0.69          	6.592167e-07	4.572365e+00	1.188198e-06	1.253316e-06	-6.511764e-08
0.695         	6.530054e-07	4.564721e+00	1.144780e-06	1.225396e-06	-8.061522e-08
0.7           	6.467945e-07	4.557174e+00	1.104185e-06	1.198887e-06	-9.470196e-08
0.705         	6.405913e-07	4.549723e+00	1.064882e-06	1.173032e-06	-1.081502e-07
0.71          	6.344023e-07	4.542366e+00	1.022777e-06	1.145791e-06	-1.230137e-07
0.715         	6.282329e-07	4.535100e+00	9.783752e-07	1.117421e-06	-1.390453e-07
0.72          	6.220891e-07	4.527925e+00	9.358800e-07	1.090029e-06	-1.541491e-07
0.725         	6.159750e-07	4.520837e+00	9.723658e-07	1.102158e-06	-1.297921e-07
0.73          	6.098954e-07	4.513859e+00	1.101464e-06	1.160628e-06	-5.916321e-08
0.735         	6.038503e-07	4.506938e+00	9.372649e-07	1.072483e-06	-1.352179e-07
0.74          	5.978490e-07	4.500136e+00	1.125018e-06	1.160358e-06	-3.533985e-08
0.745         	5.918896e-07	4.493386e+00	1.089587e-06	1.136683e-06	-4.709600e-08
0.75          	5.859762e-07	4.486727e+00	1.121656e-06	1.146804e-06	-2.514827e-08
0.755         	5.801107e-07	4.480144e+00	1.089250e-06	1.124736e-06	-3.548564e-08
0.76          	5.742954e-07	4.473640e+00	1.094815e-06	1.121703e-06	-2.688784e-08
0.765         	5.685319e-07	4.467222e+00	1.117793e-06	1.127428e-06	-9.635625e-09
0.77          	5.628219e-07	4.460866e+00	1.100617e-06	1.113131e-06	-1.251321e-08
0.775         	5.571660e-07	4.454585e+00	1.094979e-06	1.104655e-06	-9.676693e-09
0.78          	5.515661e-07	4.448386e+00	1.098657e-06	1.100894e-06	-2.237849e-09
0.785         	5.460231e-07	4.442258e+00	1.093757e-06	1.092902e-06	8.554662e-10
0.79          	5.405372e-07	4.436200e+00	1.087687e-06	1.084381e-06	3.306298e-09
0.795         	5.351087e-07	4.430212e+00	1.077636e-06	1.073927e-06	3.709415e-09
0.8           	5.297383e-07	4.424290e+00	1.065602e-06	1.062539e-06	3.062545e-09
0.805         	5.244265e-07	4.418437e+00	1.063563e-06	1.056208e-06	7.354907e-09
0.81          	5.191729e-07	4.412651e+00	1.055237e-06	1.046791e-06	8.445735e-09
0.815         	5.139779e-07	4.406929e+00	1.041834e-06	1.034895e-06	6.938885e-09
0.82          	5.088415e-07	4.401272e+00	1.044451e-06	1.031067e-06	1.338421e-08
0.825         	5.037639e-07	4.395678e+00	1.030623e-06	1.019075e-06	1.154745e-08
0.83          	4.987444e-07	4.390150e+00	1.007479e-06	1.002484e-06	4.995008e-09
0.835         	4.937819e-07	4.384677e+00	1.008737e-06	9.981506e-07	1.058670e-08
0.84          	4.888803e-07	4.379253e+00	1.000147e-06	9.889539e-07	1.119341e-08
0.845         	4.840350e-07	4.373901e+00	9.913399e-07	9.797050e-07	1.163489e-08
0.85          	4.792473e-07	4.368605e+00	9.839036e-07	9.711991e-07	1.270447e-08
0.855         	4.745163e-07	4.363369e+00	9.767485e-07	9.628905e-07	1.385797e-08
0.86          	4.698415e-07	4.358188e+00	9.671663e-07	9.534247e-07	1.374163e-08
0.865         	4.652230e-07	4.353062e+00	9.581882e-07	9.443171e-07	1.387112e-08
0.87          	4.606600e-07	4.347992e+00	9.504624e-07	9.358912e-07	1.457115e-08
0.875         	4.561523e-07	4.342973e+00	9.382970e-07	9.253008e-07	1.299624e-08
0.88          	4.516991e-07	4.338010e+00	9.315627e-07	9.174805e-07	1.408227e-08
0.885         	4.472998e-07	4.333099e+00	9.219143e-07	9.082569e-07	1.365737e-08
0.89          	4.429541e-07	4.328242e+00	9.126690e-07	8.992886e-07	1.338038e-08
0.895         	4.386617e-07	4.323433e+00	9.036004e-07	8.904619e-07	1.313853e-08
0.9           	4.344226e-07	4.318663e+00	8.982874e-07	8.835663e-07	1.472111e-08
0.905         	4.302325e-07	4.313941e+00	8.887676e-07	8.746163e-07	1.415130e-08
0.91          	4.260941e-07	4.309279e+00	8.783531e-07	8.652707e-07	1.308242e-08
0.915         	4.220052e-07	4.304665e+00	8.687365e-07	8.563734e-07	1.236305e-08
0.92          	4.179674e-07	4.300100e+00	8.604289e-07	8.481819e-07	1.224701e-08
0.925         	4.139799e-07	4.295581e+00	8.517899e-07	8.398748e-07	1.191504e-08
0.93          	4.100413e-07	4.291098e+00	8.480454e-07	8.340640e-07	1.398144e-08
0.935         	4.061504e-07	4.286659e+00	8.402933e-07	8.262971e-07	1.399622e-08
0.94          	4.023070e-07	4.282271e+00	8.306016e-07	8.176078e-07	1.299377e-08
0.945         	3.985111e-07	4.277923e+00	8.242715e-07	8.106469e-07	1.362467e-08
0.95          	3.947611e-07	4.273611e+00	8.188768e-07	8.041995e-07	1.467724e-08
0.955         	3.910562e-07	4.269341e+00	8.078576e-07	7.949850e-07	1.287258e-08
0.96          	3.874003e-07	4.265114e+00	8.006166e-07	7.877086e-07	1.290800e-08
0.965         	3.837878e-07	4.260941e+00	7.909856e-07	7.792806e-07	1.170497e-08
0.97          	3.802185e-07	4.256807e+00	7.826511e-07	7.715440e-07	1.110706e-08
0.975         	3.766924e-07	4.252711e+00	7.754044e-07	7.643946e-07	1.100982e-08
0.98          	3.732091e-07	4.248655e+00	7.687303e-07	7.575742e-07	1.115607e-08
0.985         	3.697678e-07	4.244637e+00	7.610966e-07	7.503161e-07	1.078053e-08
0.99          	3.663693e-07	4.240657e+00	7.560166e-07	7.443776e-07	1.163899e-08
0.995         	3.630125e-07	4.236715e+00	7.474814e-07	7.367532e-07	1.072821e-08
1             	3.596958e-07	4.232809e+00	7.382089e-07	7.288002e-07	9.408678e-09
1.005         	3.564165e-07	4.228944e+00	7.295150e-07	7.211740e-07	8.341004e-09
1.01          	3.531814e-07	4.225112e+00	7.222729e-07	7.143178e-07	7.955044e-09
1.015         	3.499826e-07	4.221316e+00	7.145372e-07	7.072512e-07	7.286002e-09
1.02          	3.468215e-07	4.217557e+00	7.071410e-07	7.003920e-07	6.749004e-09
1.025         	3.436976e-07	4.213833e+00	7.010786e-07	6.942369e-07	6.841679e-09
1.03          	3.406112e-07	4.210146e+00	6.946371e-07	6.879298e-07	6.707355e-09
1.035         	3.375610e-07	4.206490e+00	6.871924e-07	6.811572e-07	6.035197e-09
1.04          	3.345470e-07	4.202860e+00	6.792099e-07	6.741520e-07	5.057974e-09
1.045         	3.315692e-07	4.199257e+00	6.796215e-07	6.713800e-07	8.241548e-09
1.05          	3.286265e-07	4.195700e+00	6.679239e-07	6.625884e-07	5.335484e-09
1.055         	3.257171e-07	4.192176e+00	6.603236e-07	6.558789e-07	4.444768e-09
1.06          	3.228418e-07	4.188685e+00	6.533477e-07	6.495156e-07	3.832046e-09
1.065         	3.200001e-07	4.185224e+00	6.460377e-07	6.430190e-07	3.018762e-09
1.07          	3.171915e-07	4.181783e+00	6.447356e-07	6.395593e-07	5.176282e-09
1.075         	3.144156e-07	4.178375e+00	6.381915e-07	6.335113e-07	4.680181e-09
1.08          	3.116711e-07	4.175023e+00	6.230393e-07	6.231908e-07	-1.514118e-10
1.085         	3.089595e-07	4.171685e+00	6.227027e-07	6.203108e-07	2.391860e-09
1.09          	3.062792e-07	4.168376e+00	6.145151e-07	6.135368e-07	9.783111e-10
1.095         	3.036293e-07	4.165100e+00	6.061438e-07	6.067012e-07	-5.574138e-10
1.1           	3.010101e-07	4.161861e+00	6.020660e-07	6.020431e-07	2.287049e-11
1.105         	2.984215e-07	4.158633e+00	5.983263e-07	5.975846e-07	7.416511e-10
1.11          	2.958618e-07	4.155441e+00	5.893254e-07	5.905245e-07	-1.199105e-09
1.115         	2.933311e-07	4.152274e+00	5.848752e-07	5.857686e-07	-8.934740e-10
1.12          	2.908288e-07	4.149128e+00	5.830835e-07	5.823706e-07	7.129076e-10
1.125         	2.883549e-07	4.146006e+00	5.748646e-07	5.757872e-07	-9.226545e-10
1.13          	3.233577e-07	4.142891e+00	5.151265e-07	5.809210e-07	-6.579448e-08
1.135         	3.519818e-07	4.139842e+00	5.935071e-07	6.487354e-07	-5.522823e-08
1.14          	3.757662e-07	4.136814e+00	6.417606e-07	6.966465e-07	-5.488586e-08
1.145         	3.957711e-07	4.133818e+00	6.757783e-07	7.336602e-07	-5.788196e-08
1.15          	4.127444e-07	4.130841e+00	7.059589e-07	7.657239e-07	-5.976499e-08
1.155         	4.272278e-07	4.127887e+00	7.299039e-07	7.921798e-07	-6.227585e-08
1.16          	4.396381e-07	4.124960e+00	7.447698e-07	8.120230e-07	-6.725323e-08
1.165         	4.503037e-07	4.122058e+00	7.578426e-07	8.292250e-07	-7.138241e-08
1.17          	4.594841e-07	4.119180e+00	7.726811e-07	8.458247e-07	-7.314354e-08
1.175         	4.673886e-07	4.116326e+00	7.801676e-07	8.574724e-07	-7.730480e-08
1.18          	4.741891e-07	4.113497e+00	7.888932e-07	8.686357e-07	-7.974251e-08
1.185         	4.800286e-07	4.110693e+00	7.945765e-07	8.773168e-07	-8.274034e-08
1.19          	4.850270e-07	4.107905e+00	7.914955e-07	8.807748e-07	-8.927929e-08
1.195         	4.892835e-07	4.105142e+00	7.641045e-07	8.713358e-07	-1.072313e-07
1.2           	4.928851e-07	4.102388e+00	8.059867e-07	8.958784e-07	-8.989173e-08
1.205         	4.958985e-07	4.099674e+00	8.056277e-07	8.987124e-07	-9.308470e-08
1.21          	4.983953e-07	4.096981e+00	8.135883e-07	9.051894e-07	-9.160115e-08
1.215         	5.004312e-07	4.094309e+00	8.114199e-07	9.061411e-07	-9.472120e-08
1.22          	5.020536e-07	4.091658e+00	8.106617e-07	9.073844e-07	-9.672277e-08
1.225         	5.033039e-07	4.089028e+00	8.150370e-07	9.108224e-07	-9.578546e-08
1.23          	5.042168e-07	4.086420e+00	8.094417e-07	9.089377e-07	-9.949597e-08
1.235         	5.048270e-07	4.083833e+00	8.078991e-07	9.087765e-07	-1.008774e-07
1.24          	5.051622e-07	4.081267e+00	8.068126e-07	9.085685e-07	-1.017559e-07
1.245         	5.052486e-07	4.078721e+00	8.033924e-07	9.069448e-07	-1.035524e-07
1.25          	5.051085e-07	4.076196e+00	7.983189e-07	9.042680e-07	-1.059491e-07
1.255         	5.047593e-07	4.073688e+00	8.010431e-07	9.052809e-07	-1.042378e-07
1.26          	5.042367e-07	4.071204e+00	7.970810e-07	9.027772e-07	-1.056962e-07
1.265         	5.035404e-07	4.068737e+00	7.931928e-07	9.001368e-07	-1.069439e-07
1.27          	5.026842e-07	4.066290e+00	7.914353e-07	8.984019e-07	-1.069665e-07
1.275         	5.016834e-07	4.063863e+00	7.870941e-07	8.952304e-07	-1.081363e-07
1.28          	5.005554e-07	4.061453e+00	7.834568e-07	8.922838e-07	-1.088270e-07
1.285         	4.993125e-07	4.059065e+00	7.794385e-07	8.890317e-07	-1.095932e-07
1.29          	4.979581e-07	4.056695e+00	7.758849e-07	8.859006e-07	-1.100156e-07
1.295         	5.135733e-07	4.054338e+00	7.046156e-07	8.658811e-07	-1.612655e-07
1.3           	5.250341e-07	4.052009e+00	8.008849e-07	9.254766e-07	-1.245917e-07
1.305         	5.337567e-07	4.049689e+00	8.485613e-07	9.580373e-07	-1.094760e-07
1.31          	5.405509e-07	4.047398e+00	8.682786e-07	9.746902e-07	-1.064116e-07
1.315         	5.459097e-07	4.045110e+00	8.998104e-07	9.958150e-07	-9.600452e-08
1.32          	5.501533e-07	4.042847e+00	9.162533e-07	1.008280e-06	-9.202663e-08
1.325         	5.534981e-07	4.040601e+00	9.290293e-07	1.018013e-06	-8.898346e-08
1.33          	5.561110e-07	4.038367e+00	9.471951e-07	1.029709e-06	-8.251345e-08
1.335         	5.581055e-07	4.036156e+00	9.518127e-07	1.034012e-06	-8.219919e-08
1.34          	5.595750e-07	4.033959e+00	9.619887e-07	1.040569e-06	-7.858062e-08
1.345         	5.605948e-07	4.031785e+00	9.777279e-07	1.049459e-06	-7.173080e-08
1.35          	5.612239e-07	4.029627e+00	9.742923e-07	1.048370e-06	-7.407775e-08
1.355         	5.615140e-07	4.027485e+00	9.756730e-07	1.049351e-06	-7.367754e-08
1.36          	5.615064e-07	4.025352e+00	9.865935e-07	1.054803e-06	-6.820967e-08
1.365         	5.612352e-07	4.023235e+00	9.963806e-07	1.059425e-06	-6.304491e-08
1.37          	5.607300e-07	4.021139e+00	9.892809e-07	1.055370e-06	-6.608953e-08
1.375         	5.600160e-07	4.019061e+00	9.881803e-07	1.054106e-06	-6.592581e-08
1.38          	5.591159e-07	4.016997e+00	9.891101e-07	1.053671e-06	-6.456081e-08
1.385         	5.580494e-07	4.014948e+00	9.876318e-07	1.051865e-06	-6.423349e-08
1.39          	5.568330e-07	4.012913e+00	9.905943e-07	1.052130e-06	-6.153586e-08
1.395         	5.554810e-07	4.010895e+00	9.956562e-07	1.053309e-06	-5.765288e-08
1.4           	5.540064e-07	4.008892e+00	9.879317e-07	1.047972e-06	-6.004049e-08
1.405         	5.524188e-07	4.006902e+00	1.003751e-06	1.054294e-06	-5.054356e-08
1.41          	5.507319e-07	4.004930e+00	9.854402e-07	1.043452e-06	-5.801180e-08
1.415         	5.489623e-07	4.002971e+00	9.878844e-07	1.042904e-06	-5.502012e-08
1.42          	5.471081e-07	4.001023e+00	1.000576e-06	1.047396e-06	-4.682021e-08
1.425         	5.451752e-07	3.999083e+00	1.002148e-06	1.046249e-06	-4.410126e-08
1.43          	5.431739e-07	3.997164e+00	9.901391e-07	1.038243e-06	-4.810429e-08
1.435         	5.411117e-07	3.995260e+00	9.882835e-07	1.035253e-06	-4.696989e-08
1.44          	5.389942e-07	3.993369e+00	9.854456e-07	1.031717e-06	-4.627143e-08
1.445         	5.368264e-07	3.991493e+00	9.797592e-07	1.026706e-06	-4.694677e-08
1.45          	5.346132e-07	3.989630e+00	9.861333e-07	1.027680e-06	-4.154651e-08
1.455         	5.323592e-07	3.987780e+00	9.658280e-07	1.015273e-06	-4.944516e-08
1.46          	5.300658e-07	3.985944e+00	9.684782e-07	1.014305e-06	-4.582668e-08
1.465         	5.277387e-07	3.984122e+00	9.653989e-07	1.010438e-06	-4.503926e-08
1.47          	5.253782e-07	3.982301e+00	9.749920e-07	1.012874e-06	-3.788222e-08
1.475         	5.229955e-07	3.980502e+00	9.548186e-07	1.000405e-06	-4.558616e-08
1.48          	5.205888e-07	3.978720e+00	9.528793e-07	9.970284e-07	-4.414913e-08
1.485         	5.181581e-07	3.976951e+00	9.456355e-07	9.909758e-07	-4.534036e-08
1.49          	5.157077e-07	3.975189e+00	9.476313e-07	9.895234e-07	-4.189210e-08
1.495         	5.132393e-07	3.973444e+00	9.424632e-07	9.844709e-07	-4.200764e-08
1.5           	5.107548e-07	3.971712e+00	9.362893e-07	9.788995e-07	-4.261016e-08
1.505         	5.082569e-07	3.969991e+00	9.329898e-07	9.747518e-07	-4.176205e-08
1.51          	5.057476e-07	3.968283e+00	9.405170e-07	9.760060e-07	-3.548907e-08
1.515         	5.032281e-07	3.966586e+00	9.157875e-07	9.611219e-07	-4.533436e-08
1.52          	5.006975e-07	3.964902e+00	9.153947e-07	9.583949e-07	-4.300015e-08
1.525         	4.981607e-07	3.963231e+00	9.207865e-07	9.585539e-07	-3.776743e-08
1.53          	4.956169e-07	3.961573e+00	9.027655e-07	9.469997e-07	-4.423415e-08
1.535         	4.930688e-07	3.959928e+00	9.021837e-07	9.441607e-07	-4.197699e-08
1.54          	4.905147e-07	3.958279e+00	9.075414e-07	9.442854e-07	-3.674405e-08
1.545         	4.879637e-07	3.956648e+00	8.976614e-07	9.367944e-07	-3.913304e-08
1.55          	4.854142e-07	3.955027e+00	9.093491e-07	9.400888e-07	-3.073963e-08
1.555         	4.828600e-07	3.953416e+00	9.034768e-07	9.345984e-07	-3.112161e-08
1.56          	4.803038e-07	3.951824e+00	8.894062e-07	9.250069e-07	-3.560067e-08
1.565         	4.777486e-07	3.950244e+00	8.801814e-07	9.178393e-07	-3.765787e-08
1.57          	4.751942e-07	3.948673e+00	8.803952e-07	9.153918e-07	-3.499655e-08
1.575         	4.726456e-07	3.947113e+00	8.746546e-07	9.099729e-07	-3.531836e-08
1.58          	4.700992e-07	3.945564e+00	8.718669e-07	9.060327e-07	-3.416581e-08
1.585         	4.675564e-07	3.944025e+00	8.666317e-07	9.008722e-07	-3.424049e-08
1.59          	4.650174e-07	3.942497e+00	8.623079e-07	8.961713e-07	-3.386341e-08
1.595         	4.624832e-07	3.940978e+00	8.560067e-07	8.904865e-07	-3.447982e-08
1.6           	4.599545e-07	3.939472e+00	8.543035e-07	8.871063e-07	-3.280273e-08
1.605         	4.574322e-07	3.937974e+00	8.477390e-07	8.813017e-07	-3.356270e-08
1.61          	4.549164e-07	3.936487e+00	8.443199e-07	8.770763e-07	-3.275644e-08
1.615         	4.524068e-07	3.935010e+00	8.420649e-07	8.734392e-07	-3.137430e-08
1.62          	4.499048e-07	3.933543e+00	8.367092e-07	8.682594e-07	-3.155019e-08
1.625         	4.474102e-07	3.932086e+00	8.327870e-07	8.638037e-07	-3.101668e-08
1.63          	4.449237e-07	3.930639e+00	8.263324e-07	8.580899e-07	-3.175747e-08
1.635         	4.424454e-07	3.929202e+00	8.272999e-07	8.560953e-07	-2.879541e-08
1.64          	4.399757e-07	3.927776e+00	8.170179e-07	8.484847e-07	-3.146675e-08
1.645         	4.375159e-07	3.926357e+00	8.147203e-07	8.448761e-07	-3.015580e-08
1.65          	4.350634e-07	3.924945e+00	8.137650e-07	8.419459e-07	-2.818090e-08
1.655         	4.326217e-07	3.923546e+00	8.134446e-07	8.393440e-07	-2.589938e-08
1.66          	4.301882e-07	3.922157e+00	8.059154e-07	8.331458e-07	-2.723050e-08
1.665         	4.277646e-07	3.920777e+00	8.012878e-07	8.284084e-07	-2.712066e-08
1.67          	4.253512e-07	3.919406e+00	7.970028e-07	8.238526e-07	-2.684983e-08
1.675         	4.229481e-07	3.918044e+00	7.942189e-07	8.200576e-07	-2.583866e-08
1.68          	4.205553e-07	3.916691e+00	7.920176e-07	8.165641e-07	-2.454654e-08
1.685         	4.181728e-07	3.915348e+00	7.882490e-07	8.122973e-07	-2.404825e-08
1.69          	4.158002e-07	3.914014e+00	7.812063e-07	8.064034e-07	-2.519708e-08
1.695         	4.134351e-07	3.912686e+00	7.727639e-07	7.998171e-07	-2.705317e-08
1.7           	4.110897e-07	3.911369e+00	7.643099e-07	7.932447e-07	-2.893479e-08
1.705         	4.087510e-07	3.910061e+00	7.670811e-07	7.922915e-07	-2.521040e-08
1.71          	4.064227e-07	3.908762e+00	7.666368e-07	7.897411e-07	-2.310428e-08
1.715         	4.041056e-07	3.907471e+00	7.617670e-07	7.849891e-07	-2.322213e-08
1.72          	4.018003e-07	3.906189e+00	7.578511e-07	7.807259e-07	-2.287476e-08
1.725         	3.995011e-07	3.904915e+00	7.520409e-07	7.755216e-07	-2.348070e-08
1.73          	3.972152e-07	3.903650e+00	7.573934e-07	7.759119e-07	-1.851844e-08
1.735         	3.949411e-07	3.902396e+00	7.460444e-07	7.679633e-07	-2.191895e-08
1.74          	3.926781e-07	3.901144e+00	7.390557e-07	7.622060e-07	-2.315032e-08
1.745         	3.904255e-07	3.899892e+00	7.533757e-07	7.671134e-07	-1.373764e-08
1.75          	3.881808e-07	3.898658e+00	7.243458e-07	7.503537e-07	-2.600793e-08
1.755         	3.859525e-07	3.897441e+00	7.295248e-07	7.507149e-07	-2.119003e-08
1.76          	3.837373e-07	3.896222e+00	7.346115e-07	7.510430e-07	-1.643150e-08
1.765         	3.815334e-07	3.895011e+00	7.245044e-07	7.437856e-07	-1.928121e-08
1.77          	3.793412e-07	3.893813e+00	7.226107e-07	7.406466e-07	-1.803587e-08
1.775         	3.771603e-07	3.892623e+00	7.204574e-07	7.373890e-07	-1.693160e-08
1.78          	3.749901e-07	3.891440e+00	7.111251e-07	7.305526e-07	-1.942751e-08
1.785         	3.728313e-07	3.890263e+00	7.158979e-07	7.307802e-07	-1.488232e-08
1.79          	3.706859e-07	3.889095e+00	6.968704e-07	7.191211e-07	-2.225076e-08
1.795         	3.685540e-07	3.887933e+00	7.074239e-07	7.222659e-07	-1.484201e-08
1.8           	3.664325e-07	3.886778e+00	7.011189e-07	7.169920e-07	-1.587305e-08
1.805         	3.643205e-07	3.885625e+00	7.051411e-07	7.168911e-07	-1.174996e-08
1.81          	3.622198e-07	3.884486e+00	6.963911e-07	7.104154e-07	-1.402424e-08
1.815         	3.601302e-07	3.883356e+00	6.866283e-07	7.034443e-07	-1.681603e-08
1.82          	3.580525e-07	3.882229e+00	6.924319e-07	7.042684e-07	-1.183651e-08
1.825         	3.559840e-07	3.881110e+00	6.873925e-07	6.996803e-07	-1.228780e-08
1.83          	3.539262e-07	3.880000e+00	6.776477e-07	6.927501e-07	-1.510237e-08