# Force coefficients
# liftDir     : (0.000000e+00 1.000000e+00 0.000000e+00)
# dragDir     : (1.000000e+00 0.000000e+00 0.000000e+00)
# pitchAxis   : (0.000000e+00 0.000000e+00 1.000000e+00)
# magUInf     : 1.000000e+00
# lRef        : 1.000000e+00
# Aref        : 1.000000e-01
# CofR        : (0.000000e+00 0.000000e+00 0.000000e+00)
# Time        	Cm            	Cd            	Cl            	Cl(f)         	Cl(r)         
0.005         	2.494568e-06	3.157949e+02	-1.959475e-02	-9.794882e-03	-9.799871e-03
0.01          	2.250302e-06	7.841956e+00	1.577434e-02	7.889420e-03	7.884919e-03
0.015         	1.994599e-06	5.514678e+00	-6.319543e-04	-3.139826e-04	-3.179718e-04
0.02          	1.915526e-06	4.779006e+00	-1.105394e-04	-5.335417e-05	-5.718522e-05
0.025         	1.831749e-06	4.491229e+00	6.177843e-05	3.272096e-05	2.905747e-05
0.03          	1.748631e-06	4.300452e+00	1.200878e-04	6.179255e-05	5.829529e-05
0.035         	1.667206e-06	4.142586e+00	1.328249e-04	6.807966e-05	6.474525e-05
0.04          	1.589261e-06	4.000076e+00	1.450759e-04	7.412720e-05	7.094868e-05
0.045         	1.515133e-06	3.867609e+00	1.341872e-04	6.860874e-05	6.557847e-05
0.05          	1.444983e-06	3.743301e+00	1.233772e-04	6.313360e-05	6.024364e-05
0.055         	1.378625e-06	3.626460e+00	1.220145e-04	6.238588e-05	5.962863e-05
0.06          	1.315873e-06	3.516690e+00	1.198067e-04	6.121924e-05	5.858750e-05
0.065         	1.256540e-06	3.413581e+00	1.252249e-04	6.386900e-05	6.135593e-05
0.07          	1.200528e-06	3.316757e+00	1.253322e-04	6.386665e-05	6.146559e-05
0.075         	1.147735e-06	3.225840e+00	1.284660e-04	6.538073e-05	6.308526e-05
0.08          	1.098215e-06	3.140320e+00	1.126444e-04	5.742040e-05	5.522397e-05
0.085         	1.051879e-06	3.060042e+00	1.029071e-04	5.250544e-05	5.040168e-05
0.09          	1.008408e-06	2.984497e+00	1.030268e-04	5.252182e-05	5.050500e-05
0.095         	9.676138e-07	2.913292e+00	1.006761e-04	5.130567e-05	4.937044e-05
0.1           	9.293586e-07	2.846241e+00	1.006839e-04	5.127131e-05	4.941259e-05
0.105         	8.935504e-07	2.782997e+00	9.618865e-05	4.898788e-05	4.720078e-05
0.11          	8.600172e-07	2.723287e+00	9.868999e-05	5.020501e-05	4.848498e-05
0.115         	8.286430e-07	2.666891e+00	9.737220e-05	4.951474e-05	4.785745e-05
0.12          	7.993811e-07	2.613458e+00	9.095839e-05	4.627858e-05	4.467981e-05
0.125         	7.721229e-07	2.562896e+00	8.503820e-05	4.329122e-05	4.174698e-05
0.13          	7.467034e-07	2.515173e+00	8.373593e-05	4.261467e-05	4.112126e-05
0.135         	7.230282e-07	2.469800e+00	7.666792e-05	3.905699e-05	3.761093e-05
0.14          	7.009626e-07	2.426757e+00	7.498763e-05	3.819478e-05	3.679285e-05
0.145         	6.803649e-07	2.385947e+00	7.563925e-05	3.849999e-05	3.713926e-05
0.15          	6.611544e-07	2.347262e+00	7.490707e-05	3.811469e-05	3.679238e-05
0.155         	6.432906e-07	2.310483e+00	6.926930e-05	3.527794e-05	3.399136e-05
0.16          	6.266873e-07	2.275497e+00	6.630160e-05	3.377749e-05	3.252411e-05
0.165         	6.113045e-07	2.242098e+00	5.544258e-05	2.833259e-05	2.710998e-05
0.17          	5.970374e-07	2.210438e+00	4.883227e-05	2.501317e-05	2.381910e-05
0.175         	5.837606e-07	2.180314e+00	4.441748e-05	2.279250e-05	2.162498e-05
0.18          	5.713168e-07	2.151638e+00	4.784016e-05	2.449140e-05	2.334876e-05
0.185         	5.596343e-07	2.124192e+00	4.970463e-05	2.541195e-05	2.429268e-05
0.19          	5.487134e-07	2.098008e+00	5.009769e-05	2.559756e-05	2.450013e-05
0.195         	5.385354e-07	2.073151e+00	4.952526e-05	2.530116e-05	2.422409e-05
0.2           	5.290706e-07	2.049473e+00	4.823161e-05	2.464488e-05	2.358673e-05
0.205         	5.202719e-07	2.026717e+00	4.610135e-05	2.357095e-05	2.253040e-05
0.21          	5.121049e-07	2.005088e+00	4.400254e-05	2.251338e-05	2.148917e-05
0.215         	5.045212e-07	1.984324e+00	4.163219e-05	2.132061e-05	2.031157e-05
0.22          	4.974828e-07	1.964549e+00	3.944724e-05	2.022110e-05	1.922613e-05
0.225         	4.909522e-07	1.945761e+00	3.716551e-05	1.907371e-05	1.809180e-05
0.23          	4.848766e-07	1.927719e+00	3.680246e-05	1.888611e-05	1.791635e-05
0.235         	4.792376e-07	1.910443e+00	3.399895e-05	1.747871e-05	1.652024e-05
0.24          	4.740085e-07	1.893936e+00	3.143367e-05	1.619084e-05	1.524282e-05
0.245         	4.691715e-07	1.878076e+00	2.708130e-05	1.400982e-05	1.307148e-05
0.25          	4.646711e-07	1.862939e+00	2.571911e-05	1.332423e-05	1.239489e-05
0.255         	4.604637e-07	1.848514e+00	2.496271e-05	1.294182e-05	1.202089e-05
0.26          	4.565344e-07	1.834723e+00	2.470166e-05	1.280736e-05	1.189430e-05
0.265         	4.528744e-07	1.821461e+00	2.239605e-05	1.165090e-05	1.074515e-05
0.27          	4.494621e-07	1.808757e+00	2.173916e-05	1.131904e-05	1.042012e-05
0.275         	4.462743e-07	1.796664e+00	2.107490e-05	1.098373e-05	1.009118e-05
0.28          	4.433004e-07	1.785023e+00	2.036742e-05	1.062701e-05	9.740412e-06
0.285         	4.405218e-07	1.773807e+00	2.083468e-05	1.085786e-05	9.976816e-06
0.29          	4.379202e-07	1.763133e+00	2.275886e-05	1.181735e-05	1.094151e-05
0.295         	4.355302e-07	1.752963e+00	1.870800e-05	9.789531e-06	8.918471e-06
0.3           	4.333415e-07	1.743272e+00	1.658337e-05	8.725027e-06	7.858344e-06
0.305         	4.313031e-07	1.734110e+00	1.758752e-05	9.225065e-06	8.362458e-06
0.31          	4.294118e-07	1.725025e+00	1.703405e-05	8.946439e-06	8.087616e-06
0.315         	4.276408e-07	1.715946e+00	2.023995e-05	1.054761e-05	9.692333e-06
0.32          	4.260260e-07	1.707443e+00	1.806718e-05	9.459616e-06	8.607564e-06
0.325         	4.245697e-07	1.699402e+00	1.623051e-05	8.539822e-06	7.690683e-06
0.33          	4.232498e-07	1.691723e+00	1.531509e-05	8.080795e-06	7.234295e-06
0.335         	4.220595e-07	1.684445e+00	1.311697e-05	6.980544e-06	6.136425e-06
0.34          	4.209853e-07	1.677467e+00	1.189966e-05	6.370815e-06	5.528844e-06
0.345         	4.200023e-07	1.670837e+00	1.231755e-05	6.578776e-06	5.738771e-06
0.35          	4.191069e-07	1.664419e+00	1.206758e-05	6.452898e-06	5.614684e-06
0.355         	4.182992e-07	1.658359e+00	1.208559e-05	6.461092e-06	5.624493e-06
0.36          	4.175744e-07	1.652457e+00	1.268226e-05	6.758704e-06	5.923555e-06
0.365         	4.169270e-07	1.646851e+00	1.359648e-05	7.215168e-06	6.381314e-06
0.37          	4.163732e-07	1.641483e+00	1.225408e-05	6.543413e-06	5.710667e-06
0.375         	4.159114e-07	1.636288e+00	1.116908e-05	6.000452e-06	5.168629e-06
0.38          	4.155316e-07	1.631314e+00	1.033828e-05	5.584673e-06	4.753609e-06
0.385         	4.152260e-07	1.626587e+00	9.342179e-06	5.086316e-06	4.255864e-06
0.39          	4.149879e-07	1.622010e+00	8.974883e-06	4.902430e-06	4.072454e-06
0.395         	4.148106e-07	1.617704e+00	8.590174e-06	4.709897e-06	3.880276e-06
0.4           	4.146882e-07	1.613523e+00	8.142080e-06	4.485728e-06	3.656352e-06
0.405         	4.146338e-07	1.609493e+00	5.750374e-06	3.289821e-06	2.460553e-06
0.41          	4.146219e-07	1.605675e+00	7.340165e-06	4.084704e-06	3.255460e-06
0.415         	4.146441e-07	1.602005e+00	8.535196e-06	4.682242e-06	3.852954e-06
0.42          	4.147156e-07	1.598543e+00	8.200751e-06	4.515091e-06	3.685660e-06
0.425         	4.148422e-07	1.595195e+00	7.317828e-06	4.073756e-06	3.244072e-06
0.43          	4.150238e-07	1.591960e+00	5.863719e-06	3.346883e-06	2.516836e-06
0.435         	4.152598e-07	1.588967e+00	4.053313e-06	2.441916e-06	1.611397e-06
0.44          	4.155302e-07	1.586069e+00	4.023770e-06	2.427415e-06	1.596355e-06
0.445         	4.158203e-07	1.583371e+00	5.244039e-06	3.037840e-06	2.206199e-06
0.45          	4.161361e-07	1.581046e+00	6.094744e-06	3.463508e-06	2.631236e-06
0.455         	4.164735e-07	1.578287e+00	8.618307e-06	4.725627e-06	3.892680e-06
0.46          	4.168530e-07	1.575463e+00	8.825472e-06	4.829589e-06	3.995883e-06
0.465         	4.172858e-07	1.573097e+00	8.613690e-06	4.724131e-06	3.889559e-06
0.47          	4.177714e-07	1.570838e+00	8.261557e-06	4.548550e-06	3.713007e-06
0.475         	4.183064e-07	1.568834e+00	8.200344e-06	4.518478e-06	3.681865e-06
0.48          	4.188877e-07	1.566757e+00	8.188271e-06	4.513023e-06	3.675248e-06
0.485         	4.195232e-07	1.564987e+00	6.508592e-06	3.673819e-06	2.834773e-06
0.49          	4.202035e-07	1.563080e+00	5.880059e-06	3.360233e-06	2.519826e-06
0.495         	4.209174e-07	1.561540e+00	5.803524e-06	3.322679e-06	2.480844e-06
0.5           	4.216767e-07	1.559854e+00	2.363510e-06	1.603432e-06	7.600784e-07
0.505         	4.224718e-07	1.558341e+00	1.258395e-06	1.051669e-06	2.067255e-07
0.51          	4.232768e-07	1.556967e+00	9.634488e-07	9.050012e-07	5.844764e-08
0.515         	4.240839e-07	1.555642e+00	1.963324e-06	1.405746e-06	5.575784e-07
0.52          	4.248845e-07	1.554351e+00	3.718921e-06	2.284345e-06	1.434576e-06
0.525         	4.256895e-07	1.553211e+00	4.906526e-06	2.878953e-06	2.027574e-06
0.53          	4.265128e-07	1.552164e+00	5.715297e-06	3.284161e-06	2.431136e-06
0.535         	4.273613e-07	1.551065e+00	6.253515e-06	3.554119e-06	2.699396e-06
0.54          	4.282414e-07	1.550094e+00	6.157024e-06	3.506753e-06	2.650271e-06
0.545         	4.291525e-07	1.549185e+00	6.341528e-06	3.599917e-06	2.741612e-06
0.55          	4.300973e-07	1.548352e+00	6.007192e-06	3.433693e-06	2.573499e-06
0.555         	4.310686e-07	1.547634e+00	5.875519e-06	3.368828e-06	2.506691e-06
0.56          	4.320743e-07	1.546856e+00	4.582739e-06	2.723444e-06	1.859295e-06
0.565         	4.331058e-07	1.546223e+00	4.727340e-06	2.796776e-06	1.930564e-06
0.57          	4.341534e-07	1.545700e+00	4.744528e-06	2.806417e-06	1.938111e-06
0.575         	4.352343e-07	1.545383e+00	2.854422e-06	1.862445e-06	9.919766e-07
0.58          	4.363311e-07	1.544818e+00	2.819304e-06	1.845983e-06	9.733210e-07
0.585         	4.374414e-07	1.544148e+00	2.001518e-06	1.438201e-06	5.633178e-07
0.59          	4.385676e-07	1.543805e+00	2.546276e-07	5.658814e-07	-3.112538e-07
0.595         	4.396908e-07	1.543313e+00	1.461580e-06	1.170481e-06	2.910992e-07
0.6           	4.408109e-07	1.542988e+00	1.515611e-06	1.198616e-06	3.169947e-07
0.605         	4.419328e-07	1.542715e+00	1.995275e-06	1.439570e-06	5.557046e-07
0.61          	4.430537e-07	1.542642e+00	3.000802e-06	1.943455e-06	1.057347e-06
0.615         	4.441840e-07	1.542346e+00	2.291239e-06	1.589803e-06	7.014353e-07
0.62          	4.453251e-07	1.542256e+00	2.915750e-06	1.903200e-06	1.012550e-06
0.625         	4.464884e-07	1.542272e+00	4.217755e-07	6.573761e-07	-2.356006e-07
0.63          	4.476635e-07	1.542023e+00	-2.632938e-07	3.160166e-07	-5.793104e-07
0.635         	4.488324e-07	1.542068e+00	2.693152e-07	5.834900e-07	-3.141748e-07
0.64          	4.499997e-07	1.542138e+00	-1.122148e-07	3.938923e-07	-5.061072e-07
0.645         	4.511637e-07	1.542171e+00	2.137244e-07	5.580259e-07	-3.443015e-07
0.65          	4.523304e-07	1.542219e+00	-7.714183e-07	6.662121e-08	-8.380395e-07
0.655         	4.534950e-07	1.542347e+00	-5.710657e-07	1.679622e-07	-7.390279e-07
0.66          	4.546463e-07	1.542511e+00	1.024572e-06	9.669323e-07	5.763964e-08
0.665         	4.557771e-07	1.542787e+00	4.677220e-06	2.794387e-06	1.882833e-06
0.67          	4.569234e-07	1.542853e+00	3.553209e-06	2.233528e-06	1.319681e-06
0.675         	4.580843e-07	1.543086e+00	4.924736e-06	2.920452e-06	2.004284e-06
0.68          	4.592656e-07	1.543366e+00	4.554657e-06	2.736594e-06	1.818063e-06
0.685         	4.604696e-07	1.543644e+00	2.265197e-06	1.593068e-06	6.721287e-07
0.69          	4.616820e-07	1.544077e+00	1.904736e-06	1.414050e-06	4.906859e-07
0.695         	4.629009e-07	1.544534e+00	1.766696e-06	1.346249e-06	4.204472e-07
0.7           	4.641214e-07	1.545071e+00	1.537756e-06	1.232999e-06	3.047567e-07
0.705         	4.653430e-07	1.545332e+00	1.275157e-06	1.102921e-06	1.722353e-07
0.71          	4.665623e-07	1.545575e+00	1.545000e-06	1.239062e-06	3.059377e-07
0.715         	4.677758e-07	1.545800e+00	1.281225e-06	1.108388e-06	1.728365e-07
0.72          	4.689944e-07	1.546242e+00	5.382505e-07	7.381196e-07	-1.998691e-07
0.725         	4.702068e-07	1.546636e+00	7.860391e-07	8.632264e-07	-7.718729e-08
0.73          	4.714128e-07	1.547311e+00	1.379160e-06	1.160993e-06	2.181673e-07
0.735         	4.726126e-07	1.547543e+00	-1.065566e-06	-6.017025e-08	-1.005395e-06
0.74          	4.738040e-07	1.548108e+00	-3.492571e-07	2.991754e-07	-6.484325e-07
0.745         	4.749779e-07	1.548848e+00	-7.166068e-07	1.166745e-07	-8.332813e-07
0.75          	4.761460e-07	1.549107e+00	-8.671935e-07	4.254927e-08	-9.097427e-07
0.755         	4.772993e-07	1.549701e+00	-7.355328e-07	1.095329e-07	-8.450657e-07
0.76          	4.784373e-07	1.550323e+00	-1.673788e-07	3.947479e-07	-5.621267e-07
0.765         	4.795591e-07	1.551108e+00	2.447686e-07	6.019434e-07	-3.571748e-07
0.77          	4.806674e-07	1.551422e+00	8.172219e-07	8.892784e-07	-7.205648e-08
0.775         	4.817658e-07	1.552056e+00	1.522280e-06	1.242906e-06	2.793740e-07
0.78          	4.828597e-07	1.552703e+00	7.008667e-07	8.332930e-07	-1.324263e-07
0.785         	4.839593e-07	1.553294e+00	-3.321263e-08	4.673530e-07	-5.005656e-07
0.79          	4.850441e-07	1.554116e+00	2.126788e-07	5.913835e-07	-3.787047e-07
0.795         	4.861172e-07	1.554701e+00	3.611827e-07	6.667086e-07	-3.055259e-07
0.8           	4.871806e-07	1.555317e+00	-3.948246e-07	2.897683e-07	-6.845929e-07
0.805         	4.882355e-07	1.555996e+00	-1.103240e-06	-6.338439e-08	-1.039855e-06
0.81          	4.892702e-07	1.556692e+00	-6.650596e-07	1.567404e-07	-8.218000e-07
0.815         	4.902834e-07	1.557404e+00	-5.475453e-07	2.165108e-07	-7.640561e-07
0.82          	4.912810e-07	1.558152e+00	-5.536225e-07	2.144697e-07	-7.680922e-07
0.825         	4.922619e-07	1.559025e+00	-1.032959e-06	-2.421758e-08	-1.008741e-06
0.83          	4.932300e-07	1.559749e+00	-2.258423e-06	-6.359817e-07	-1.622442e-06
0.835         	4.941774e-07	1.560244e+00	-2.602055e-06	-8.068500e-07	-1.795205e-06
0.84          	4.950802e-07	1.561042e+00	1.055119e-06	1.022640e-06	3.247942e-08
0.845         	4.959478e-07	1.561480e+00	3.606507e-06	2.299201e-06	1.307306e-06
0.85          	4.968076e-07	1.562337e+00	3.439466e-06	2.216541e-06	1.222925e-06
0.855         	4.976626e-07	1.562938e+00	4.262324e-06	2.628825e-06	1.633500e-06
0.86          	4.985213e-07	1.563658e+00	2.866570e-06	1.931806e-06	9.347638e-07
0.865         	4.993800e-07	1.564639e+00	2.206615e-06	1.602687e-06	6.039275e-07
0.87          	5.002386e-07	1.565430e+00	-6.403889e-08	4.682191e-07	-5.322580e-07
0.875         	5.010899e-07	1.565890e+00	-1.905203e-06	-4.515116e-07	-1.453691e-06
0.88          	5.019112e-07	1.566684e+00	-1.647121e-06	-3.216492e-07	-1.325471e-06
0.885         	5.027018e-07	1.567512e+00	-2.394889e-06	-6.947426e-07	-1.700146e-06
0.89          	5.034650e-07	1.568414e+00	-3.185699e-06	-1.089385e-06	-2.096315e-06
0.895         	5.041836e-07	1.568904e+00	-2.558138e-06	-7.748856e-07	-1.783253e-06
0.9           	5.048627e-07	1.569696e+00	-2.470858e-06	-7.305662e-07	-1.740292e-06
0.905         	5.055068e-07	1.570488e+00	-2.577520e-06	-7.832531e-07	-1.794267e-06
0.91          	5.061172e-07	1.571292e+00	-3.213416e-06	-1.100591e-06	-2.112825e-06
0.915         	5.066843e-07	1.572197e+00	-1.806935e-06	-3.967831e-07	-1.410152e-06
0.92          	5.072106e-07	1.572804e+00	-9.418510e-07	3.628507e-08	-9.781361e-07
0.925         	5.077059e-07	1.573636e+00	-6.606883e-07	1.773618e-07	-8.380501e-07
0.93          	5.081716e-07	1.574273e+00	-4.084860e-07	3.039286e-07	-7.124146e-07
0.935         	5.086057e-07	1.575060e+00	4.437316e-07	7.304716e-07	-2.867399e-07
0.94          	5.090240e-07	1.575853e+00	-1.191380e-06	-8.666585e-08	-1.104714e-06
0.945         	5.094089e-07	1.576630e+00	-6.214790e-07	1.986694e-07	-8.201484e-07
0.95          	5.097548e-07	1.577527e+00	-3.441482e-07	3.376807e-07	-6.818289e-07
0.955         	5.100635e-07	1.578236e+00	-6.243444e-07	1.978913e-07	-8.222357e-07
0.96          	5.103457e-07	1.578962e+00	-7.037072e-07	1.584921e-07	-8.621993e-07
0.965         	5.105959e-07	1.579970e+00	-7.502789e-07	1.354565e-07	-8.857354e-07
0.97          	5.108112e-07	1.580670e+00	-8.040197e-07	1.088014e-07	-9.128210e-07
0.975         	5.109926e-07	1.581174e+00	-1.029009e-06	-3.512051e-09	-1.025497e-06
0.98          	5.111344e-07	1.582113e+00	-1.180798e-06	-7.926445e-08	-1.101533e-06
0.985         	5.112411e-07	1.582603e+00	-8.657950e-07	7.834359e-08	-9.441386e-07
0.99          	5.113118e-07	1.583387e+00	-1.560308e-06	-2.688422e-07	-1.291466e-06
0.995         	5.113449e-07	1.584410e+00	-1.130811e-06	-5.406079e-08	-1.076751e-06
1             	5.113353e-07	1.585033e+00	-1.216098e-06	-9.671368e-08	-1.119384e-06
1.005         	5.112837e-07	1.585575e+00	-1.364335e-06	-1.708838e-07	-1.193451e-06
1.01          	5.111900e-07	1.586431e+00	-1.367012e-06	-1.723161e-07	-1.194696e-06
1.015         	5.110428e-07	1.587286e+00	-2.155755e-06	-5.668349e-07	-1.588920e-06
1.02          	5.108548e-07	1.587746e+00	-2.815907e-06	-8.970988e-07	-1.918808e-06
1.025         	5.106166e-07	1.588496e+00	-6.825331e-07	1.693501e-07	-8.518832e-07
1.03          	5.103204e-07	1.589258e+00	-9.785775e-07	2.103160e-08	-9.996092e-07
1.035         	5.099838e-07	1.590037e+00	-1.333555e-07	4.433061e-07	-5.766616e-07
1.04          	5.096170e-07	1.590811e+00	-1.581008e-06	-2.808869e-07	-1.300121e-06
1.045         	5.091955e-07	1.591671e+00	9.441964e-07	9.812937e-07	-3.709737e-08
1.05          	5.087344e-07	1.592107e+00	-1.119806e-07	4.527441e-07	-5.647247e-07
1.055         	5.082410e-07	1.592867e+00	-1.634794e-06	-3.091559e-07	-1.325638e-06
1.06          	5.077076e-07	1.593707e+00	-2.330253e-06	-6.574190e-07	-1.672834e-06
1.065         	5.071142e-07	1.594205e+00	-5.320159e-07	2.411063e-07	-7.731221e-07
1.07          	5.064635e-07	1.594920e+00	6.844347e-07	8.486809e-07	-1.642461e-07
1.075         	5.057718e-07	1.595656e+00	-1.482177e-07	4.316629e-07	-5.798807e-07
1.08          	5.050391e-07	1.596534e+00	-4.678657e-07	2.711062e-07	-7.389719e-07
1.085         	5.042588e-07	1.596912e+00	-4.950452e-07	2.567362e-07	-7.517814e-07
1.09          	5.034296e-07	1.597602e+00	-2.846026e-07	3.611283e-07	-6.457310e-07
1.095         	5.025482e-07	1.598287e+00	2.917748e-07	6.484356e-07	-3.566608e-07
1.1           	5.016218e-07	1.598972e+00	-1.687935e-07	4.172250e-07	-5.860186e-07
1.105         	5.006556e-07	1.599672e+00	-1.501904e-06	-2.502965e-07	-1.251608e-06
1.11          	4.996304e-07	1.600506e+00	-1.992036e-06	-4.963877e-07	-1.495649e-06
1.115         	4.985604e-07	1.601160e+00	-3.138500e-06	-1.070690e-06	-2.067811e-06
1.12          	4.974311e-07	1.601554e+00	-3.003396e-06	-1.004267e-06	-1.999129e-06
1.125         	4.962377e-07	1.602311e+00	-2.913534e-06	-9.605294e-07	-1.953005e-06
1.13          	4.949794e-07	1.603013e+00	-2.918086e-06	-9.640636e-07	-1.954022e-06
1.135         	4.936567e-07	1.603312e+00	-2.377738e-06	-6.952125e-07	-1.682526e-06
1.14          	4.922711e-07	1.603969e+00	-2.170015e-06	-5.927364e-07	-1.577279e-06
1.145         	4.908295e-07	1.604685e+00	-2.651395e-06	-8.348679e-07	-1.816527e-06
1.15          	4.893250e-07	1.605259e+00	-2.368862e-06	-6.951060e-07	-1.673756e-06
1.155         	4.877601e-07	1.605639e+00	-2.284330e-06	-6.544050e-07	-1.629925e-06
1.16          	4.861352e-07	1.606337e+00	-2.352221e-06	-6.899754e-07	-1.662246e-06
1.165         	4.844508e-07	1.606942e+00	-2.422762e-06	-7.269302e-07	-1.695832e-06
1.17          	4.827044e-07	1.607565e+00	-1.933509e-06	-4.840504e-07	-1.449459e-06
1.175         	4.808987e-07	1.608337e+00	-2.100833e-06	-5.695180e-07	-1.531315e-06
1.18          	4.790365e-07	1.608608e+00	-2.504507e-06	-7.732170e-07	-1.731290e-06
1.185         	4.771137e-07	1.609196e+00	-2.234356e-06	-6.400644e-07	-1.594292e-06
1.19          	4.751261e-07	1.609806e+00	-1.518296e-06	-2.840220e-07	-1.234274e-06
1.195         	4.730776e-07	1.610456e+00	-1.375202e-06	-2.145234e-07	-1.160679e-06
1.2           	4.709670e-07	1.610742e+00	-9.384353e-08	4.240452e-07	-5.178887e-07
1.205         	4.688030e-07	1.611332e+00	-3.564896e-07	2.905582e-07	-6.470477e-07
1.21          	4.665904e-07	1.611979e+00	-9.714016e-07	-1.911042e-08	-9.522912e-07
1.215         	4.643228e-07	1.612414e+00	-1.133089e-06	-1.022220e-07	-1.030868e-06
1.22          	4.619936e-07	1.612853e+00	2.937194e-08	4.766796e-07	-4.473076e-07
1.225         	4.596022e-07	1.613369e+00	1.548318e-06	1.233761e-06	3.145568e-07
1.23          	4.571616e-07	1.613866e+00	1.079864e-06	9.970934e-07	8.277015e-08
1.235         	4.546677e-07	1.614364e+00	1.583585e-06	1.246460e-06	3.371250e-07
1.24          	4.521235e-07	1.614866e+00	1.777498e-06	1.340872e-06	4.366255e-07
1.245         	4.495316e-07	1.615350e+00	2.463848e-06	1.681456e-06	7.823926e-07
1.25          	4.468883e-07	1.615838e+00	2.581558e-06	1.737667e-06	8.438908e-07
1.255         	4.442050e-07	1.616339e+00	1.177003e-06	1.032706e-06	1.442964e-07
1.26          	4.414795e-07	1.616939e+00	-7.307060e-07	7.612653e-08	-8.068325e-07
1.265         	4.386966e-07	1.617297e+00	-9.956084e-07	-5.910758e-08	-9.365008e-07
1.27          	4.358477e-07	1.617711e+00	-6.350717e-08	4.040941e-07	-4.676013e-07
1.275         	4.329397e-07	1.618035e+00	-3.597561e-07	2.530616e-07	-6.128177e-07
1.28          	4.299740e-07	1.618489e+00	-1.215203e-06	-1.776275e-07	-1.037576e-06
1.285         	4.269514e-07	1.619042e+00	-2.922129e-06	-1.034113e-06	-1.888016e-06
1.29          	4.238615e-07	1.619226e+00	-2.935128e-06	-1.043702e-06	-1.891425e-06
1.295         	4.206998e-07	1.619582e+00	-2.973754e-06	-1.066177e-06	-1.907577e-06
1.3           	4.174498e-07	1.620007e+00	-1.800731e-06	-4.829155e-07	-1.317815e-06
1.305         	4.141490e-07	1.620430e+00	-2.508510e-06	-8.401058e-07	-1.668404e-06
1.31          	4.107941e-07	1.620872e+00	-2.855252e-06	-1.016832e-06	-1.838420e-06
1.315         	4.073732e-07	1.621314e+00	-2.113063e-06	-6.491583e-07	-1.463905e-06
1.32          	4.038872e-07	1.621579e+00	-1.614361e-06	-4.032933e-07	-1.211068e-06
1.325         	4.003391e-07	1.622007e+00	-1.468537e-06	-3.339294e-07	-1.134608e-06
1.33          	3.967347e-07	1.622444e+00	-5.537187e-07	1.198754e-07	-6.735941e-07
1.335         	3.930660e-07	1.622556e+00	-4.733577e-08	3.693981e-07	-4.167339e-07
1.34          	3.893462e-07	1.622922e+00	-1.129503e-06	-1.754055e-07	-9.540979e-07
1.345         	3.855763e-07	1.623297e+00	-1.438973e-06	-3.339104e-07	-1.105063e-06
1.35          	3.817491e-07	1.623803e+00	-8.197741e-07	-2.813796e-08	-7.916361e-07
1.355         	3.778667e-07	1.623871e+00	-3.216347e-07	2.170494e-07	-5.386841e-07
1.36          	3.739221e-07	1.624202e+00	2.260734e-06	1.504289e-06	7.564450e-07
1.365         	3.699315e-07	1.624516e+00	2.388718e-06	1.564290e-06	8.244273e-07
1.37          	3.659037e-07	1.624826e+00	2.585911e-06	1.658859e-06	9.270520e-07
1.375         	3.618407e-07	1.625129e+00	2.852075e-06	1.787878e-06	1.064197e-06
1.38          	3.577130e-07	1.625433e+00	2.602913e-06	1.659169e-06	9.437435e-07
1.385         	3.535182e-07	1.625729e+00	1.820289e-06	1.263663e-06	5.566265e-07
1.39          	3.492891e-07	1.626020e+00	1.490050e-06	1.094314e-06	3.957361e-07
1.395         	3.450216e-07	1.626334e+00	9.327892e-07	8.114162e-07	1.213729e-07
1.4           	3.407123e-07	1.626753e+00	-6.061546e-07	3.763499e-08	-6.437895e-07
1.405         	3.363516e-07	1.626746e+00	-1.190030e-06	-2.586635e-07	-9.313667e-07
1.41          	3.319192e-07	1.627022e+00	-1.064171e-06	-2.001662e-07	-8.640046e-07
1.415         	3.274754e-07	1.627326e+00	-3.677659e-06	-1.511354e-06	-2.166305e-06
1.42          	3.229343e-07	1.627709e+00	-9.980307e-07	-1.760810e-07	-8.219496e-07
1.425         	3.183692e-07	1.627744e+00	-3.916855e-06	-1.640058e-06	-2.276797e-06
1.43          	3.137156e-07	1.627981e+00	-1.523168e-06	-4.478684e-07	-1.075300e-06
1.435         	3.090245e-07	1.628042e+00	-1.793768e-06	-5.878597e-07	-1.205909e-06
1.44          	3.042569e-07	1.628427e+00	4.758937e-07	5.422037e-07	-6.631004e-08
1.445         	2.994450e-07	1.628431e+00	1.679954e-06	1.139422e-06	5.405318e-07
1.45          	2.945813e-07	1.628645e+00	2.618180e-06	1.603671e-06	1.014509e-06
1.455         	2.896872e-07	1.628867e+00	2.491529e-06	1.535452e-06	9.560772e-07
1.46          	2.847518e-07	1.629152e+00	4.101914e-06	2.335709e-06	1.766205e-06
1.465         	2.797916e-07	1.629382e+00	4.065236e-06	2.312409e-06	1.752826e-06
1.47          	2.747701e-07	1.629324e+00	4.558147e-06	2.553844e-06	2.004303e-06
1.475         	2.697263e-07	1.629457e+00	4.103327e-06	2.321390e-06	1.781937e-06
1.48          	2.646660e-07	1.629627e+00	5.459330e-06	2.994331e-06	2.464999e-06
1.485         	2.599340e-07	1.629802e+00	2.701302e-06	1.610585e-06	1.090717e-06
1.49          	2.551725e-07	1.629958e+00	3.325294e-06	1.917819e-06	1.407474e-06
1.495         	2.503512e-07	1.630269e+00	1.485871e-06	9.932869e-07	4.925845e-07
1.5           	2.454945e-07	1.630156e+00	1.846185e-06	1.168587e-06	6.775981e-07
1.505         	2.405846e-07	1.630283e+00	4.464542e-07	4.638117e-07	-1.735747e-08
1.51          	2.356281e-07	1.630404e+00	1.102898e-06	7.870769e-07	3.158207e-07
1.515         	2.306135e-07	1.630524e+00	1.402508e-06	9.318673e-07	4.706404e-07
1.52          	2.255532e-07	1.630628e+00	1.199017e-06	8.250619e-07	3.739555e-07
1.525         	2.204435e-07	1.630743e+00	2.523213e-06	1.482050e-06	1.041163e-06
1.53          	2.152893e-07	1.630842e+00	3.173041e-06	1.801810e-06	1.371231e-06
1.535         	2.100980e-07	1.630947e+00	3.056295e-06	1.738246e-06	1.318050e-06
1.54          	2.048737e-07	1.631078e+00	3.126888e-06	1.768318e-06	1.358570e-06
1.545         	1.996170e-07	1.631284e+00	3.632092e-06	2.015663e-06	1.616429e-06
1.55          	1.943263e-07	1.631158e+00	4.390291e-06	2.389472e-06	2.000819e-06
1.555         	1.890092e-07	1.631394e+00	4.266201e-06	2.322110e-06	1.944091e-06
1.56          	1.836689e-07	1.631312e+00	4.077267e-06	2.222302e-06	1.854965e-06
1.565         	1.783147e-07	1.631157e+00	2.887511e-06	1.622070e-06	1.265441e-06
1.57          	1.729365e-07	1.631210e+00	2.995734e-06	1.670804e-06	1.324931e-06
1.575         	1.675303e-07	1.631259e+00	3.089968e-06	1.712514e-06	1.377454e-06
1.58          	1.621058e-07	1.631301e+00	1.654674e-06	9.894429e-07	6.652312e-07
1.585         	1.566486e-07	1.631337e+00	3.498015e-06	1.905656e-06	1.592359e-06
1.59          	1.511601e-07	1.631368e+00	4.377336e-06	2.339828e-06	2.037508e-06
1.595         	1.456514e-07	1.631396e+00	4.935764e-06	2.613534e-06	2.322231e-06
1.6           	1.401297e-07	1.631427e+00	4.796958e-06	2.538609e-06	2.258349e-06
1.605         	1.345929e-07	1.631470e+00	5.536201e-06	2.902693e-06	2.633508e-06
1.61          	1.290553e-07	1.631625e+00	4.367178e-06	2.312644e-06	2.054534e-06
1.615         	1.235020e-07	1.631330e+00	5.202917e-06	2.724960e-06	2.477957e-06
1.62          	1.179368e-07	1.631324e+00	5.219647e-06	2.727760e-06	2.491887e-06
1.625         	1.123668e-07	1.631385e+00	4.802277e-06	2.513505e-06	2.288772e-06
1.63          	1.067893e-07	1.631278e+00	4.895233e-06	2.554406e-06	2.340827e-06
1.635         	1.012069e-07	1.631255e+00	4.422290e-06	2.312352e-06	2.109938e-06
1.64          	9.562044e-08	1.631233e+00	3.587425e-06	1.889333e-06	1.698092e-06
1.645         	9.002872e-08	1.631187e+00	3.239552e-06	1.709805e-06	1.529747e-06
1.65          	8.442740e-08	1.631158e+00	2.803786e-06	1.486320e-06	1.317465e-06
1.655         	7.880965e-08	1.631115e+00	3.864655e-06	2.011137e-06	1.853518e-06
1.66          	7.318167e-08	1.631046e+00	3.853080e-06	1.999722e-06	1.853359e-06
1.665         	6.754916e-08	1.630991e+00	4.024287e-06	2.079693e-06	1.944594e-06
1.67          	6.191021e-08	1.630935e+00	4.650329e-06	2.387075e-06	2.263254e-06
1.675         	5.627931e-08	1.630873e+00	3.960416e-06	2.036487e-06	1.923929e-06
1.68          	5.064362e-08	1.630813e+00	4.107565e-06	2.104426e-06	2.003139e-06
1.685         	4.500651e-08	1.630768e+00	3.924423e-06	2.007218e-06	1.917205e-06
1.69          	3.936084e-08	1.630791e+00	4.802883e-06	2.440802e-06	2.362081e-06
1.695         	3.372942e-08	1.630535e+00	3.928723e-06	1.998091e-06	1.930632e-06
1.7           	2.809810e-08	1.630563e+00	4.419793e-06	2.237995e-06	2.181798e-06
1.705         	2.247013e-08	1.630166e+00	4.386242e-06	2.215591e-06	2.170651e-06
1.71          	1.684993e-08	1.630056e+00	4.192998e-06	2.113349e-06	2.079649e-06
1.715         	1.123471e-08	1.629947e+00	4.650575e-06	2.336522e-06	2.314053e-06
1.72          	5.623513e-09	1.629811e+00	5.604874e-06	2.808060e-06	2.796813e-06
1.725         	2.148547e-11	1.629761e+00	4.958011e-06	2.479027e-06	2.478984e-06
1.73          	-5.568572e-09	1.629638e+00	4.004977e-06	1.996920e-06	2.008057e-06
1.735         	-1.114389e-08	1.629515e+00	7.438002e-06	3.707857e-06	3.730145e-06
1.74          	-1.670684e-08	1.629387e+00	8.053110e-06	4.009848e-06	4.043262e-06
1.745         	-2.224583e-08	1.629256e+00	7.764475e-06	3.859991e-06	3.904483e-06
1.75          	-2.775972e-08	1.629122e+00	8.535864e-06	4.240172e-06	4.295692e-06
1.755         	-3.325547e-08	1.628995e+00	8.830250e-06	4.381870e-06	4.448381e-06
1.76          	-3.872851e-08	1.628991e+00	9.848513e-06	4.885528e-06	4.962985e-06
1.765         	-4.417125e-08	1.628641e+00	9.874115e-06	4.892886e-06	4.981229e-06
1.77          	-4.958205e-08	1.628487e+00	9.610347e-06	4.755591e-06	4.854755e-06
1.775         	-5.496010e-08	1.628331e+00	9.751911e-06	4.820996e-06	4.930916e-06
1.78          	-6.030766e-08	1.628171e+00	9.881175e-06	4.880280e-06	5.000895e-06
1.785         	-6.562445e-08	1.628008e+00	1.025078e-05	5.059767e-06	5.191016e-06
1.79          	-7.090883e-08	1.627848e+00	9.673377e-06	4.765779e-06	4.907597e-06
1.795         	-7.615847e-08	1.627733e+00	9.226428e-06	4.537055e-06	4.689372e-06
1.8           	-8.137797e-08	1.627461e+00	9.068491e-06	4.452868e-06	4.615623e-06
1.805         	-8.656997e-08	1.627305e+00	9.184754e-06	4.505807e-06	4.678947e-06
1.81          	-9.172774e-08	1.627172e+00	7.968820e-06	3.892682e-06	4.076138e-06
1.815         	-9.685612e-08	1.626913e+00	7.037381e-06	3.421835e-06	3.615547e-06
1.82          	-1.019642e-07	1.626751e+00	7.106066e-06	3.451069e-06	3.654997e-06
1.825         	-1.070530e-07	1.626705e+00	7.473439e-06	3.629667e-06	3.843773e-06