/*--------------------------------*- C++ -*----------------------------------*\
  =========                 |
  \\      /  F ield         | OpenFOAM: The Open Source CFD Toolbox
   \\    /   O peration     | Website:  https://openfoam.org
    \\  /    A nd           | Version:  7
     \\/     M anipulation  |
\*---------------------------------------------------------------------------*/
FoamFile
{
    version     2.0;
    format      ascii;
    class       surfaceScalarField;
    location    "15";
    object      phi;
}
// * * * * * * * * * * * * * * * * * * * * * * * * * * * * * * * * * * * * * //

dimensions      [0 3 -1 0 0 0 0];

internalField   nonuniform List<scalar> 
12578
(
-7.89389e-06
7.87188e-06
2.20116e-08
-2.80748e-05
2.01384e-05
4.25739e-08
-5.86169e-05
3.04966e-05
4.54871e-08
-9.77356e-05
3.90847e-05
3.40786e-08
-0.000143913
4.61659e-05
1.12723e-08
-0.000196047
5.21555e-05
-2.1475e-08
-0.000253627
5.76444e-05
-6.47341e-08
-0.000316964
6.34584e-05
-1.20987e-07
-0.000387388
7.06178e-05
-1.94021e-07
8.05234e-05
-2.88769e-07
-0.000467622
-7.77297e-06
1.56448e-05
-2.76643e-05
4.00297e-05
-5.77643e-05
6.05966e-05
-9.62807e-05
7.76011e-05
-0.000141661
9.15463e-05
-0.000192738
0.000103232
-0.000248895
0.000113802
-0.000310304
0.000124867
-0.000378125
0.000138439
0.000157243
-0.000454844
-7.53754e-06
2.31824e-05
-2.68626e-05
5.93547e-05
-5.60962e-05
8.98301e-05
-9.343e-05
0.000114935
-0.000137245
0.000135361
-0.000186244
0.000152232
-0.000239609
0.000167166
-0.00029723
0.000182488
-0.000359944
0.000201153
0.000227062
-0.000429764
-7.19956e-06
3.03819e-05
-2.57058e-05
7.7861e-05
-5.36804e-05
0.000117805
-8.9291e-05
0.000150546
-0.000130823
0.000176893
-0.000176793
0.000198202
-0.000226086
0.000216459
-0.000278186
0.000234589
-0.000333464
0.000256431
0.000286823
-0.000393224
-6.77577e-06
3.71577e-05
-2.42442e-05
9.53294e-05
-5.0612e-05
0.000144173
-8.40138e-05
0.000183947
-0.000122613
0.000215492
-0.000164696
0.000240285
-0.000208765
0.000260528
-0.000253778
0.000279602
-0.000299521
0.000302174
0.000333639
-0.000346337
-6.2864e-06
4.34441e-05
-2.25385e-05
0.000111582
-4.70048e-05
0.000168639
-7.77769e-05
0.000214719
-0.000112877
0.000250593
-0.000150318
0.000277726
-0.000188154
0.000298364
-0.000224702
0.000316149
-0.000259063
0.000336536
0.000364888
-0.000290313
-5.75362e-06
4.91977e-05
-2.06551e-05
0.000126483
-4.29825e-05
0.000190966
-7.07716e-05
0.000242509
-0.000101887
0.000281707
-0.000134039
0.000309879
-0.000164777
0.000329102
-0.000191657
0.000343029
-0.000213012
0.000357891
0.000378146
-0.000226271
-5.1999e-06
5.43976e-05
-1.86606e-05
0.000139944
-3.86673e-05
0.000210973
-6.31828e-05
0.000267024
-8.98983e-05
0.000308423
-0.000116205
0.000336185
-0.000139095
0.000351992
-0.000155239
0.000359172
-0.000162101
0.000364753
0.000371098
-0.000155052
-4.64635e-06
5.9044e-05
-1.66167e-05
0.000151914
-3.41691e-05
0.000228525
-5.51695e-05
0.000288024
-7.7119e-05
0.000330372
-9.70702e-05
0.000356136
-0.000111426
0.000366348
-0.000115814
0.00036356
-0.000106645
0.000355585
0.000341709
-7.72564e-05
-4.11128e-06
6.31553e-05
-1.45753e-05
0.000162378
-2.95754e-05
0.000243525
-4.68457e-05
0.000305295
-6.36724e-05
0.000347199
-7.6749e-05
0.000369213
-8.18648e-05
0.000371463
-7.34248e-05
0.00035512
-4.58369e-05
0.000327997
0.000291596
4.27649e-06
-3.60903e-06
6.67643e-05
-1.25741e-05
0.000171343
-2.4942e-05
0.000255893
-3.82643e-05
0.000318617
-4.957e-05
0.000358505
-5.5156e-05
0.000374799
-5.01817e-05
0.000366489
-2.79966e-05
0.000332935
2.11643e-05
0.000278836
0.000211374
0.000101386
-3.14912e-06
6.99134e-05
-1.06341e-05
0.000178828
-2.02869e-05
0.000265546
-2.9404e-05
0.000327734
-3.46879e-05
0.000363789
-3.1966e-05
0.000372077
-1.56407e-05
0.000350164
2.18252e-05
0.000295469
9.24682e-05
0.000208193
9.66324e-05
0.00020721
-2.73574e-06
7.26492e-05
-8.75736e-06
0.00018485
-1.55857e-05
0.000272374
-2.01643e-05
0.000332313
-1.87571e-05
0.000362382
-6.60465e-06
0.000359924
2.2783e-05
0.000320776
7.86551e-05
0.000239597
0.000175205
0.000111644
-5.62102e-05
0.000328047
-2.36744e-06
7.50166e-05
-6.92555e-06
0.000189408
-1.07707e-05
0.00027622
-1.03652e-05
0.000331907
-1.37319e-06
0.00035339
2.17599e-05
0.000336791
6.65868e-05
0.000275949
0.000143965
0.000162219
0.000272337
-1.67282e-05
-0.00025193
0.000468057
-2.03686e-06
-5.09943e-06
0.00019247
-5.73045e-06
0.000276851
2.64722e-07
0.000325912
1.80012e-05
0.000335653
5.41386e-05
0.000300654
0.000117628
0.00021246
0.000220944
5.89025e-05
0.000388221
-0.000184005
-0.000494702
0.000630993
-3.21768e-06
0.000193957
-2.85844e-07
0.000273919
1.20205e-05
0.000313606
3.99919e-05
0.000307682
9.16822e-05
0.000248964
0.000177872
0.00012627
0.000312721
-7.59472e-05
0.000527075
-0.000398359
-0.000786511
0.000818884
-1.19295e-06
0.000193721
5.69465e-06
0.000267031
2.53309e-05
0.000293969
6.53277e-05
0.000267685
0.000135612
0.000178679
0.00024928
1.26034e-05
0.000422315
-0.000248983
0.000691585
-0.000667629
-0.00112555
0.00103062
1.06597e-06
1.25268e-05
0.00025557
4.06604e-05
0.000265836
9.48066e-05
0.000213539
0.000187171
8.63147e-05
0.000333608
-0.000133834
0.000552396
-0.00046777
0.000881621
-0.000996853
-0.00150502
0.00126109
2.04817e-05
0.000238771
5.85477e-05
0.00022777
0.000129288
0.000142799
0.000247554
-3.19516e-05
0.000432185
-0.000318465
0.000704773
-0.000740359
0.00109369
-0.00138577
-0.00191633
0.00150499
2.99024e-05
7.95882e-05
0.000178084
0.000169654
5.2733e-05
0.000317809
-0.000180106
0.00054557
-0.000546226
0.000878228
-0.00107302
0.00132322
-0.00183076
-0.00236695
0.00177385
0.000104407
0.000216754
-5.96142e-05
0.00039869
-0.000362042
0.000673266
-0.000820802
0.00106591
-0.00146567
0.0015608
-0.00232565
-0.00308925
0.00228309
0.000271303
-0.00019731
0.000490485
-0.000581224
0.000813858
-0.00114418
0.00125986
-0.00191167
0.00180158
-0.00286737
-0.00379721
0.00250955
0.000333729
0.000592713
-0.000840208
0.00096436
-0.00151582
0.00145364
-0.00240094
0.00202656
-0.0034403
-0.00446948
0.00269883
0.000703785
0.00111949
-0.00193153
0.00163925
-0.0029207
0.00221818
-0.00401923
-0.00509246
0.00284116
0.00127217
0.0018059
-0.00345443
0.0023679
-0.00458122
-0.0056536
0.00292904
0.00194415
0.00247097
-0.00510805
-0.00614706
0.00296443
0.00252737
-0.0065734
0.00295372
0.00290451
0.0025413
0.00558926
0.00657502
0.00290505
0.00252804
0.00510964
0.00614872
0.00295433
0.0019448
0.00345573
0.00247167
0.00458277
0.00565529
0.00296511
0.00127265
0.0019323
0.00180653
0.00292185
0.00236863
0.00402067
0.00509413
0.00292978
0.00070405
0.000840529
0.00111992
0.00151643
0.00163985
0.00240192
0.00221891
0.00344161
0.00447109
0.00284195
0.00033385
0.000197367
0.000592936
0.000581443
0.00096473
0.00114464
0.00145418
0.00191246
0.00202727
0.00286852
0.00379872
0.00269964
0.000271406
5.96191e-05
0.000490673
0.000362176
0.000814174
0.000821138
0.00126035
0.00146629
0.00180224
0.00232664
0.00309059
0.00251036
0.000104452
-0.000178174
0.000216842
-5.27706e-05
0.000398848
0.00018017
0.000673532
0.000546454
0.00106634
0.00107349
0.00156138
0.0018316
0.00236812
0.00228385
2.99227e-05
-0.000238885
7.96293e-05
-0.00022788
0.00016973
-0.000142871
0.000317942
3.1958e-05
0.000545792
0.000318603
0.000878585
0.000740693
0.00132375
0.00138643
0.00191735
0.00177452
2.05011e-05
-0.000255696
5.85846e-05
-0.000265964
0.000129353
-0.000213639
0.000247665
-8.6354e-05
0.000432368
0.0001339
0.000705066
0.000467995
0.00109413
0.000997367
0.00150589
0.00150559
1.07441e-06
-0.000193823
1.25448e-05
-0.000267166
4.06929e-05
-0.000294112
9.48614e-05
-0.000267808
0.000187261
-0.000178754
0.000333755
-1.2594e-05
0.000552628
0.000249122
0.000881986
0.000668009
0.00112627
0.00126161
-1.18478e-06
-0.000194064
5.71053e-06
-0.000274061
2.5358e-05
-0.000313759
6.53714e-05
-0.000307821
0.000135682
-0.000249064
0.00024939
-0.000126302
0.000422488
7.60245e-05
0.000691865
0.000398632
0.000787087
0.00103104
-1.72821e-06
-7.71019e-05
-3.21057e-06
-0.000192582
-2.72267e-07
-0.000277
1.20415e-05
-0.000326073
4.00236e-05
-0.000335804
9.17309e-05
-0.000300772
0.000177948
-0.000212519
0.00031284
-5.88679e-05
0.000527271
0.000184201
0.000495156
0.000819202
-2.03477e-06
-7.50672e-05
-5.09381e-06
-0.000189523
-5.72106e-06
-0.000276372
2.78219e-07
-0.000332072
1.80204e-05
-0.000353546
5.41665e-05
-0.000336918
0.000117671
-0.000276023
0.000221013
-0.00016221
0.000388341
1.68731e-05
0.00025229
0.000631206
-2.36582e-06
-7.27014e-05
-6.92169e-06
-0.000184967
-1.07652e-05
-0.000272529
-1.03589e-05
-0.000332479
-1.36666e-06
-0.000362538
2.17676e-05
-0.000360052
6.65986e-05
-0.000320854
0.000143988
-0.000239599
0.000272388
-0.000111527
5.65051e-05
0.000468173
-2.73466e-06
-6.99667e-05
-8.75541e-06
-0.000178946
-1.55844e-05
-0.0002657
-2.01655e-05
-0.000327897
-1.87627e-05
-0.000363941
-6.61558e-06
-0.000372199
2.27672e-05
-0.000350237
7.86376e-05
-0.00029547
0.000175196
-0.000208085
-9.6375e-05
0.000328076
-3.14861e-06
-6.68181e-05
-1.06341e-05
-0.000171461
-2.02895e-05
-0.000256044
-2.94121e-05
-0.000318775
-3.47043e-05
-0.000358649
-3.19931e-05
-0.00037491
-1.56802e-05
-0.00036655
2.17725e-05
-0.000332922
9.24118e-05
-0.000278725
-0.000211129
0.000207165
-3.60907e-06
-6.3209e-05
-1.25759e-05
-0.000162494
-2.49483e-05
-0.000243672
-3.82784e-05
-0.000305445
-4.95956e-05
-0.000347331
-5.51964e-05
-0.000369309
-5.02397e-05
-0.000371507
-2.80727e-05
-0.000355089
2.10762e-05
-0.000327873
-0.000291338
0.000101285
-4.11181e-06
-5.90972e-05
-1.45786e-05
-0.000152027
-2.95847e-05
-0.000228666
-4.68647e-05
-0.000288165
-6.3705e-05
-0.000330491
-7.67992e-05
-0.000356215
-8.19364e-05
-0.00036637
-7.35206e-05
-0.000363505
-4.59626e-05
-0.000355431
-0.000341402
4.10173e-06
-4.64728e-06
-5.44499e-05
-1.66212e-05
-0.000140053
-3.41806e-05
-0.000211106
-5.51919e-05
-0.000267154
-7.71564e-05
-0.000308527
-9.71268e-05
-0.000336245
-0.000111506
-0.00035199
-0.000115922
-0.000359089
-0.000106787
-0.000364566
-0.000370766
-7.74225e-05
-5.20113e-06
-4.92488e-05
-1.86659e-05
-0.000126589
-3.86802e-05
-0.000191092
-6.32071e-05
-0.000242627
-8.99381e-05
-0.000281796
-0.000116264
-0.000309919
-0.000139179
-0.000329076
-0.000155352
-0.000342916
-0.000162251
-0.000357668
-0.000377777
-0.00015524
-5.75501e-06
-4.34938e-05
-2.06608e-05
-0.000111683
-4.29959e-05
-0.000168757
-7.07964e-05
-0.000214826
-0.000101926
-0.000250666
-0.000134099
-0.000277746
-0.00016486
-0.000298314
-0.000191769
-0.000316007
-0.000213162
-0.000336275
-0.000364475
-0.000226463
-6.28783e-06
-3.7206e-05
-2.25442e-05
-9.54264e-05
-4.70179e-05
-0.000144283
-7.78006e-05
-0.000184043
-0.000112915
-0.000215551
-0.000150374
-0.000240288
-0.000188232
-0.000260455
-0.000224807
-0.000279432
-0.000259204
-0.000301879
-0.000333182
-0.000290497
-6.77713e-06
-3.04288e-05
-2.42495e-05
-7.79541e-05
-5.06239e-05
-0.000117909
-8.40351e-05
-0.000150632
-0.000122647
-0.000176939
-0.000164745
-0.00019819
-0.000208834
-0.000216367
-0.000253871
-0.000234394
-0.000299646
-0.000256104
-0.000286326
-0.000346502
-7.20074e-06
-2.32281e-05
-2.57103e-05
-5.94445e-05
-5.36905e-05
-8.99288e-05
-8.93089e-05
-0.000115014
-0.000130851
-0.000135398
-0.000176834
-0.000152206
-0.000226143
-0.000167058
-0.000278263
-0.000182274
-0.000333567
-0.000200801
-0.000226532
-0.000393362
-7.53845e-06
-1.56896e-05
-2.6866e-05
-4.01169e-05
-5.61038e-05
-6.0691e-05
-9.34434e-05
-7.76741e-05
-0.000137266
-9.15751e-05
-0.000186275
-0.000103197
-0.000239651
-0.000113682
-0.000297287
-0.000124638
-0.000360021
-0.000138067
-0.000156687
-0.000429866
-7.77354e-06
-7.9161e-06
-2.76664e-05
-2.0224e-05
-5.7769e-05
-3.05884e-05
-9.62891e-05
-3.9154e-05
-0.000141674
-4.61901e-05
-0.000192757
-5.21145e-05
-0.000248921
-5.75174e-05
-0.000310339
-6.32195e-05
-0.000378173
-7.02338e-05
-7.99513e-05
-0.000454908
-7.89409e-06
-2.80756e-05
-5.86185e-05
-9.77385e-05
-0.000143917
-0.000196053
-0.000253635
-0.000316976
-0.000387404
-0.000467644
-0.00050973
4.23989e-05
-2.91664e-07
-0.000553955
4.45908e-05
-3.65203e-07
-0.000600084
4.65788e-05
-4.50429e-07
-0.000648265
4.87296e-05
-5.48012e-07
-0.000698696
5.10894e-05
-6.58243e-07
-0.000751595
5.36793e-05
-7.81005e-07
-0.000807158
5.64787e-05
-9.15604e-07
-0.000865547
5.94495e-05
-1.06045e-06
-0.000926874
6.25403e-05
-1.21277e-06
-0.000991188
6.56814e-05
-1.36822e-06
-0.00105844
6.87761e-05
-1.52067e-06
-0.00112847
7.16927e-05
-1.66181e-06
-0.00120095
7.42567e-05
-1.78093e-06
-0.00127533
7.62444e-05
-1.86485e-06
-0.00135081
7.73793e-05
-1.89802e-06
-0.00142628
7.73306e-05
-1.8629e-06
-0.00150025
7.57161e-05
-1.74049e-06
-0.00157085
7.21086e-05
-1.51113e-06
-0.00163575
6.60505e-05
-1.15617e-06
-0.00169215
5.70714e-05
-6.61923e-07
-0.00173687
4.47375e-05
-2.41738e-08
-0.00176626
2.86443e-05
7.51179e-07
-0.00177599
8.05668e-06
1.67401e-06
-0.00176212
-1.64653e-05
2.58891e-06
-0.00172078
-4.49379e-05
3.59594e-06
-0.00164831
-7.70085e-05
4.54538e-06
-0.00154211
-0.000111539
5.33231e-06
-0.0014012
-0.000146772
5.86149e-06
-0.00122598
-0.000181257
6.04387e-06
-0.00101975
-0.000212071
5.83733e-06
-0.000785968
-0.000239012
5.23046e-06
-0.000531982
-0.000258236
4.25109e-06
-0.000260837
-0.00027415
3.00372e-06
1.54819e-05
-0.000277853
1.53465e-06
0.000299983
-0.000284515
1.39798e-08
0.000573992
-0.000272656
-1.35362e-06
0.000850919
-0.000274133
-2.79442e-06
0.00110566
-0.000251215
-3.52513e-06
0.00136255
-0.000252239
-4.65336e-06
0.00159331
-0.000226284
-4.46985e-06
0.00182876
-0.000230262
-5.19469e-06
-0.000218717
-4.21021e-06
-0.000495731
8.32859e-05
-0.000538694
8.75532e-05
-0.000583535
9.14199e-05
-0.000630396
9.55907e-05
-0.000679455
0.000100149
-0.000730917
0.000105141
-0.000784971
0.000110533
-0.000841774
0.000116253
-0.000901439
0.000122205
-0.000964014
0.000128256
-0.00102946
0.000134223
-0.00109762
0.000139851
-0.00116817
0.000144805
-0.00124058
0.000148654
-0.00131406
0.000150861
-0.00138751
0.000150786
-0.00145948
0.000147687
-0.00152811
0.000140733
-0.00159109
0.000129031
-0.00164568
0.000111659
-0.00168869
8.77534e-05
-0.00171656
5.65135e-05
-0.001725
1.64934e-05
-0.0017101
-3.1365e-05
-0.00166803
-8.70093e-05
-0.00159517
-0.000149867
-0.00148893
-0.000217781
-0.00134837
-0.000287333
-0.00117389
-0.000355729
-0.000968795
-0.000417169
-0.000736534
-0.000471272
-0.000484405
-0.000510366
-0.000215445
-0.00054311
5.8575e-05
-0.000551873
0.000340386
-0.000566326
0.000611832
-0.000544101
0.000885946
-0.000548247
0.00113815
-0.000503422
0.00139232
-0.000506407
0.00162075
-0.000454712
0.00185372
-0.000463237
-0.000439344
-0.000468284
0.000121806
-0.00050879
0.000128059
-0.000551126
0.000133756
-0.000595416
0.000139881
-0.000641804
0.000146536
-0.000690467
0.000153805
-0.000741581
0.000161646
-0.000795293
0.000169965
-0.000851714
0.000178626
-0.000910897
0.00018744
-0.000972815
0.000196141
-0.00103732
0.000204358
-0.00110412
0.000211599
-0.00117269
0.000217228
-0.00124228
0.000220455
-0.00131183
0.000220336
-0.00137992
0.000215774
-0.00144473
0.000205543
-0.00150402
0.000188323
-0.00155511
0.00016275
-0.00159489
0.000127525
-0.00161986
8.14848e-05
-0.00162584
2.24743e-05
-0.00160904
-4.81637e-05
-0.00156563
-0.000130417
-0.00149209
-0.000223411
-0.00138586
-0.000324012
-0.00124604
-0.000427154
-0.00107304
-0.000528721
-0.000870167
-0.000620046
-0.000640849
-0.00070059
-0.000392284
-0.000758931
-0.000127506
-0.000807887
0.000142031
-0.00082141
0.000418788
-0.000843083
0.000685333
-0.000810646
0.000954061
-0.000816975
0.00120141
-0.000750775
0.00145033
-0.000755324
0.00167427
-0.000678656
0.00190244
-0.000691401
-0.000655503
-0.000428372
0.000156954
-0.000465357
0.000165044
-0.000504096
0.000172495
-0.000544693
0.000180478
-0.000587241
0.000189084
-0.000631879
0.000198443
-0.000678759
0.000208526
-0.000728015
0.000219221
-0.000779757
0.000230368
-0.000834047
0.00024173
-0.000890872
0.000252965
-0.00095011
0.000263596
-0.00101149
0.000272977
-0.00107454
0.000280276
-0.00113854
0.000284459
-0.00120249
0.000284281
-0.00126502
0.000278304
-0.00132439
0.000264916
-0.00137845
0.00024238
-0.0014246
0.000208903
-0.00145983
0.000162755
-0.00148078
0.000102432
-0.0014834
2.50965e-05
-0.00146406
-6.75043e-05
-0.00141894
-0.000175539
-0.00134462
-0.000297722
-0.00123863
-0.000430011
-0.00110007
-0.000565708
-0.000929377
-0.000699416
-0.000729818
-0.000819605
-0.000504793
-0.000925614
-0.000261348
-0.00100238
-1.93655e-06
-0.0010673
0.000260627
-0.00108397
0.000530289
-0.00111275
0.000789949
-0.00107031
0.00105112
-0.00107815
0.00129167
-0.000991324
0.00153321
-0.000996862
0.00175085
-0.000896297
0.00197223
-0.000912776
-0.00086534
-0.000377308
0.000187925
-0.000409892
0.000197628
-0.000444128
0.00020673
-0.000480096
0.000216447
-0.000517824
0.000226813
-0.000557404
0.000238023
-0.000598953
0.000250075
-0.000642593
0.00026286
-0.000688429
0.000276205
-0.000736535
0.000289836
-0.00078692
0.000303351
-0.000839495
0.00031617
-0.000894028
0.00032751
-0.000950102
0.00033635
-0.00100706
0.000341417
-0.00106396
0.000341183
-0.00111953
0.000333875
-0.00117213
0.000317509
-0.00121969
0.000289947
-0.00125977
0.00024898
-0.00128947
0.000192451
-0.00130557
0.000118531
-0.00130423
2.37562e-05
-0.00128198
-8.97552e-05
-0.00123502
-0.000222494
-0.00116008
-0.00037266
-0.00105472
-0.000535373
-0.000918089
-0.00070234
-0.00075057
-0.000866935
-0.000555413
-0.00101476
-0.000335931
-0.0011451
-9.89273e-05
-0.00123938
0.000152328
-0.00131855
0.000407549
-0.0013392
0.00066851
-0.00137371
0.000919726
-0.00132152
0.00117168
-0.0013301
0.00140393
-0.00122358
0.00163646
-0.00122939
0.00184642
-0.00110625
0.00205948
-0.00112583
-0.00106741
-0.000316559
0.000214171
-0.000344094
0.000225163
-0.000373155
0.00023579
-0.000403791
0.000247083
-0.000435959
0.000258981
-0.000469689
0.000271753
-0.000505061
0.000285447
-0.000542175
0.000299975
-0.000581137
0.000315166
-0.000622033
0.000330732
-0.0006649
0.000346218
-0.000709692
0.000360961
-0.00075623
0.000374048
-0.000804163
0.000384283
-0.000852915
0.000390169
-0.000901633
0.000389901
-0.000949148
0.00038139
-0.000993932
0.000362294
-0.00103407
0.000330085
-0.00106724
0.000282153
-0.00109073
0.000215933
-0.00110146
0.000129264
-0.00109581
1.81078e-05
-0.00107054
-0.000115025
-0.00102184
-0.00027119
-0.000946591
-0.000447913
-0.000842396
-0.000639568
-0.000708417
-0.000836319
-0.000544971
-0.00103038
-0.000355237
-0.0012045
-0.000142373
-0.00135796
8.68069e-05
-0.00146856
0.000329335
-0.00156108
0.000575427
-0.00158529
0.000826463
-0.00162474
0.0010681
-0.00156316
0.00130966
-0.00157166
0.00153261
-0.00144653
0.00175502
-0.0014518
0.00195636
-0.00130759
0.00216006
-0.00132953
-0.0012607
-0.000247519
0.000235419
-0.000269637
0.000247282
-0.000293124
0.000259277
-0.000317999
0.000271958
-0.000344142
0.000285124
-0.000371513
0.000299123
-0.000400147
0.00031408
-0.000430121
0.00032995
-0.000461538
0.000346583
-0.0004945
0.000363694
-0.000529078
0.000380796
-0.000565274
0.000397157
-0.000602977
0.000411752
-0.000641916
0.000423222
-0.000681609
0.000429861
-0.000721313
0.000429606
-0.000759985
0.000420061
-0.000796235
0.000398544
-0.000828303
0.000362153
-0.000854037
0.000307888
-0.00087089
0.000232786
-0.000876016
0.00013439
-0.0008659
7.99178e-06
-0.000837685
-0.000143241
-0.000787462
-0.000321413
-0.000712284
-0.00052309
-0.000609815
-0.000742037
-0.0004792
-0.000966934
-0.000320657
-0.00118892
-0.000137115
-0.00138804
6.79553e-05
-0.00156303
0.000288047
-0.00168865
0.000521049
-0.00179408
0.000757098
-0.00182134
0.000997343
-0.00186499
0.00122865
-0.00179447
0.00145908
-0.00180209
0.0016721
-0.00165954
0.00188375
-0.00166345
0.00207594
-0.00149979
0.0022697
-0.00152329
-0.00144465
-0.000171297
0.000251663
-0.000187917
0.000263902
-0.000205736
0.000277096
-0.000224725
0.000290947
-0.000244684
0.000305083
-0.000265492
0.000319932
-0.00028714
0.000335728
-0.000309679
0.000352489
-0.000333206
0.00037011
-0.000357839
0.000388327
-0.000383688
0.000406644
-0.000410809
0.000424279
-0.000439166
0.000440109
-0.00046858
0.000452636
-0.000498679
0.00045996
-0.000528847
0.000459775
-0.000558184
0.000449398
-0.000585457
0.000425818
-0.00060908
0.000385775
-0.000627081
0.000325889
-0.000637112
0.000242818
-0.000636393
0.000133671
-0.000622101
-6.3003e-06
-0.000590914
-0.000174428
-0.000539412
-0.000372914
-0.000464674
-0.000597829
-0.000364406
-0.000842304
-0.000237716
-0.00109362
-8.45183e-05
-0.00134212
9.14558e-05
-0.00156401
0.000287519
-0.00175909
0.000498265
-0.0018994
0.000720886
-0.0020167
0.000946219
-0.00204667
0.00117509
-0.00209386
0.00139557
-0.00201495
0.00161448
-0.002021
0.00181727
-0.00186234
0.0020179
-0.00186409
0.00220076
-0.00168264
0.00238437
-0.00170691
-0.00161903
-8.85019e-05
0.000262909
-9.97255e-05
0.000275126
-0.000112207
0.000289577
-0.000125494
0.000304234
-0.000139423
0.000319012
-0.000153787
0.000334296
-0.000168526
0.000350467
-0.000183666
0.00036763
-0.000199298
0.000385742
-0.000215556
0.000404585
-0.000232584
0.000423673
-0.000250498
0.000442192
-0.000269337
0.000458948
-0.000289023
0.000472323
-0.000309306
0.000480242
-0.000329713
0.000480181
-0.000349497
0.000469182
-0.000367601
0.000443922
-0.000382623
0.000400797
-0.000392788
0.000336054
-0.000395941
0.00024597
-0.000389469
0.0001272
-0.000370912
-2.48575e-05
-0.000336918
-0.000208422
-0.000284319
-0.000425513
-0.000210219
-0.000671929
-0.000112299
-0.000940224
1.10772e-05
-0.001217
0.000156084
-0.00148713
0.00032396
-0.00173189
0.000511191
-0.00194632
0.000711777
-0.00209998
0.000923411
-0.00222834
0.00113755
-0.00226081
0.00135466
-0.00231097
0.00156404
-0.00222433
0.00177127
-0.00222823
0.00196377
-0.00205483
0.00215339
-0.00205371
0.00232695
-0.0018562
0.00250053
-0.00188049
-0.00178393
3.4157e-06
0.00026377
-5.55573e-06
0.000284097
-1.30686e-05
0.00029709
-2.11062e-05
0.000312272
-2.94891e-05
0.000327395
-3.78463e-05
0.000342653
-4.60752e-05
0.000358696
-5.41859e-05
0.00037574
-6.22616e-05
0.000393817
-7.04487e-05
0.000412772
-7.89228e-05
0.000432147
-8.78501e-05
0.000451119
-9.73472e-05
0.000468445
-0.000107435
0.000482411
-0.00011799
0.000490797
-0.000128687
0.000490878
-0.000138952
0.000479447
-0.000147917
0.000452887
-0.00015437
0.000407249
-0.000156734
0.000338418
-0.000153055
0.000242292
-0.000140907
0.000115051
-0.000118027
-4.77375e-05
-8.11586e-05
-0.00024529
-2.7118e-05
-0.000479553
4.58912e-05
-0.000744939
0.000140206
-0.00103454
0.000257207
-0.001334
0.00039691
-0.00162683
0.000556608
-0.00189159
0.000734212
-0.00212393
0.000924137
-0.00228991
0.00112435
-0.00242855
0.00132697
-0.00246342
0.0015321
-0.0025161
0.00173026
-0.00242249
0.00192582
-0.00242379
0.00210808
-0.00223709
0.0022869
-0.00223253
0.00245137
-0.00202067
0.00261522
-0.00204434
-0.00193965
9.93128e-05
0.000265843
9.5927e-05
0.000287483
9.2273e-05
0.000300744
8.85395e-05
0.000316005
8.4937e-05
0.000330998
8.18686e-05
0.000345721
7.94558e-05
0.000361109
7.7695e-05
0.000377501
7.65063e-05
0.000395006
7.5736e-05
0.000413542
7.51873e-05
0.000432696
7.4654e-05
0.000451652
7.39561e-05
0.000469143
7.29818e-05
0.000483385
7.1737e-05
0.000492041
7.03986e-05
0.000492217
6.93696e-05
0.000480476
6.93274e-05
0.00045293
7.12687e-05
0.000405308
7.65392e-05
0.000333147
8.69006e-05
0.00023193
0.000104583
9.73681e-05
0.000131639
-7.47935e-05
0.000171035
-0.000284686
0.000225463
-0.000533981
0.000297563
-0.000817039
0.000389358
-0.00112633
0.000501548
-0.00144619
0.000634384
-0.00175967
0.000785425
-0.00204263
0.000952992
-0.0022915
0.00113193
-0.00246884
0.00132044
-0.00261706
0.00151135
-0.00265433
0.00170441
-0.00270916
0.00189134
-0.00260942
0.00207537
-0.00260782
0.00224756
-0.00240929
0.0024159
-0.00240087
0.00257158
-0.00217635
0.00272616
-0.00219891
-0.00208664
0.00020748
0.000265572
0.000205943
0.00028902
0.000205046
0.000301641
0.000204534
0.000316517
0.000204691
0.000330841
0.000205949
0.000344464
0.00020841
0.000358647
0.000212056
0.000373856
0.000216801
0.000390261
0.000222489
0.000407854
0.000228917
0.000426268
0.000235855
0.000444714
0.000243079
0.000461919
0.000250403
0.000476061
0.000257726
0.000484718
0.000265087
0.000484856
0.00027272
0.000472843
0.000281113
0.000444536
0.000291064
0.000395357
0.000303708
0.000320504
0.000320562
0.000215076
0.000343647
7.42831e-05
0.00037487
-0.000106016
0.000416956
-0.000326772
0.000472394
-0.000589418
0.000543602
-0.000888247
0.000632474
-0.00121521
0.000739614
-0.00155333
0.000865353
-0.00188541
0.0010075
-0.00218477
0.00116478
-0.00244878
0.00133254
-0.00263661
0.00150921
-0.00279373
0.00168837
-0.00283348
0.0018694
-0.0028902
0.00204518
-0.0027852
0.0022179
-0.00278054
0.00238028
-0.00257167
0.00253855
-0.00255914
0.00268582
-0.00232361
0.00283165
-0.00234475
-0.00222544
0.000328612
0.000265007
0.000327326
0.000290307
0.000327566
0.000301401
0.000328945
0.000315138
0.000331658
0.000328128
0.000336093
0.000340029
0.000342274
0.000352466
0.000350133
0.000365997
0.000359574
0.00038082
0.000370448
0.00039698
0.000382563
0.000414153
0.000395695
0.000431582
0.000409605
0.00044801
0.000424061
0.000461605
0.000438883
0.000469896
0.00045399
0.000469749
0.000469464
0.000457369
0.00048561
0.00042839
0.000503023
0.000377944
0.000522617
0.00030091
0.000545683
0.000192009
0.000574024
4.59424e-05
0.00060941
-0.000141402
0.000654207
-0.000371569
0.000710694
-0.000645906
0.000781043
-0.000958596
0.000866964
-0.00130113
0.000968965
-0.00165533
0.00108746
-0.0020039
0.00122057
-0.00231788
0.00136745
-0.00259565
0.00152399
-0.00279315
0.00168883
-0.00295857
0.0018563
-0.00300096
0.00202547
-0.00305936
0.00219029
-0.00295002
0.00235202
-0.00294227
0.0025049
-0.00272454
0.00265359
-0.00270783
0.00279287
-0.00246289
0.00293056
-0.00248244
-0.00235666
0.000466044
0.000267021
0.000463062
0.000293289
0.000462807
0.000301655
0.000464682
0.000313263
0.00046869
0.000324121
0.000475063
0.000333656
0.00048367
0.000343859
0.000494363
0.000355304
0.000507034
0.00036815
0.000521558
0.000382456
0.000537783
0.000397928
0.000555523
0.000413843
0.000574558
0.000428975
0.000594648
0.000441514
0.000615568
0.000448976
0.000637147
0.00044817
0.000659338
0.000435178
0.00068228
0.000405449
0.000706372
0.000353852
0.000732297
0.000274984
0.000761146
0.00016316
0.000794424
1.26645e-05
0.000833803
-0.000180782
0.00088123
-0.000418995
0.000938721
-0.000703398
0.00100815
-0.00102803
0.00109102
-0.001384
0.00118776
-0.00175207
0.00129889
-0.00211503
0.00142288
-0.00244188
0.00155933
-0.0027321
0.00170474
-0.00293855
0.00185789
-0.00311172
0.00201389
-0.00315696
0.00217145
-0.00321693
0.00232563
-0.0031042
0.00247678
-0.00309341
0.00262055
-0.00286831
0.00276019
-0.00284747
0.00289196
-0.00259466
0.00302215
-0.00261263
-0.00248096
0.000622927
0.000275086
0.000616309
0.000299907
0.000614166
0.000303797
0.000615309
0.00031212
0.000619438
0.000319992
0.000626493
0.000326601
0.000636124
0.000334227
0.000648103
0.000343324
0.000662328
0.000353924
0.00067873
0.000366054
0.000697229
0.000379429
0.000717713
0.000393359
0.000740021
0.000406667
0.000763944
0.00041759
0.00078925
0.000423671
0.000815716
0.000421704
0.000843199
0.000407696
0.00087169
0.000376957
0.000901412
0.00032413
0.000932818
0.000243579
0.000966681
0.000129297
0.00100458
-2.52337e-05
0.00104745
-0.000223652
0.00109721
-0.000468752
0.00115546
-0.000761656
0.00122374
-0.0010963
0.00130331
-0.00146358
0.00139456
-0.00184331
0.00149817
-0.00221865
0.00161303
-0.00255674
0.00173914
-0.00285821
0.00187361
-0.00307302
0.00201535
-0.00325347
0.00216021
-0.00330181
0.00230657
-0.0033633
0.0024505
-0.00324812
0.00259155
-0.00323447
0.00272668
-0.00300344
0.00285787
-0.00297866
0.00298267
-0.00271946
0.00310603
-0.00273599
-0.00259903
0.000801411
0.00029256
0.000789991
0.000311327
0.000785295
0.000308493
0.000784911
0.000312504
0.000788163
0.000316739
0.000794617
0.000320148
0.000803726
0.000325118
0.000815241
0.000331809
0.000829123
0.000340043
0.000845402
0.000349775
0.000864114
0.000360718
0.000885251
0.000372222
0.000908744
0.000383174
0.000934451
0.000391883
0.000962169
0.000395952
0.000991664
0.000392209
0.00102273
0.000376634
0.00105523
0.000344451
0.00108925
0.000290116
0.00112498
0.00020784
0.00116301
9.1273e-05
0.00120456
-6.67811e-05
0.00125031
-0.000269409
0.00130179
-0.000520231
0.00136028
-0.00082014
0.00142691
-0.00116293
0.00150277
-0.00153943
0.0015882
-0.00192874
0.00168413
-0.00231458
0.0017899
-0.0026625
0.00190586
-0.00297417
0.00202973
-0.00319689
0.00216047
-0.00338421
0.00229462
-0.00343596
0.00243029
-0.00349897
0.00256446
-0.00338229
0.00269601
-0.00336602
0.00282304
-0.00313047
0.00294643
-0.00310205
0.00306483
-0.00283787
0.00318207
-0.00285323
-0.00271157
0.00100228
0.000320905
0.000986902
0.000326702
0.000980234
0.000315161
0.000978067
0.000314671
0.0009795
0.000315306
0.000983857
0.000315791
0.000990597
0.000318377
0.000999599
0.000322808
0.00101097
0.000328667
0.00102491
0.000335837
0.00104159
0.000344041
0.00106113
0.000352685
0.00108356
0.000360738
0.00110884
0.000366602
0.00113682
0.000367974
0.00116728
0.00036175
0.00119998
0.000343937
0.0012347
0.000309725
0.00127138
0.000253439
0.00130997
0.000169244
0.00135088
5.03693e-05
0.00139497
-0.000110872
0.00144257
-0.000317012
0.00149482
-0.000572483
0.00155265
-0.000877968
0.00161687
-0.00122715
0.00168839
-0.00161095
0.0017676
-0.00200795
0.00185571
-0.0024027
0.0019525
-0.00275929
0.00205864
-0.00308032
0.00217235
-0.00331059
0.00229264
-0.0035045
0.00241665
-0.00355997
0.00254225
-0.00362457
0.00266726
-0.00350729
0.00278997
-0.00348873
0.00290953
-0.00325003
0.00302583
-0.00321835
0.00313849
-0.00295053
0.00325033
-0.00296507
-0.00281933
0.00122524
0.000356758
0.0012106
0.000341339
0.00120408
0.00032169
0.00120002
0.000318727
0.00119821
0.00031712
0.0011983
0.000315692
0.00120024
0.000316441
0.00120423
0.000318814
0.00121064
0.000322264
0.00121982
0.000326653
0.00123211
0.000331755
0.00124773
0.00033706
0.00126683
0.000341635
0.00128944
0.000343993
0.00131548
0.000341942
0.00134474
0.000332482
0.00137699
0.000311689
0.00141194
0.000274773
0.00144937
0.000216013
0.00148923
0.000129386
0.00153119
8.40796e-06
0.00157643
-0.000156113
0.00162442
-0.000365
0.00167606
-0.000624125
0.00173197
-0.000933875
0.00179268
-0.00128786
0.00185905
-0.00167732
0.0019316
-0.00208049
0.0020118
-0.0024829
0.00209985
-0.00284734
0.00219664
-0.00317711
0.00230082
-0.00341477
0.00241136