# Probe 0 (0.3889 0.3889 0)
# Probe 1 (0.4243 0.4243 0)
# Probe 2 (0.4596 0.4596 0)
# Probe 3 (0 0.55 0)
# Probe 4 (0 0.6 0)
# Probe 5 (0 0.65 0)
# Probe 6 (0.3889 -0.3889 0)
# Probe 7 (0.4243 -0.4243 0)
# Probe 8 (0.4596 -0.4596 0)
#       Probe             0             1             2             3             4             5             6             7             8
#        Time
        0.005      -54.8483      -47.5767       -45.847       12.2511       12.3897       12.5176       -52.174        -47.58      -43.5146
         0.01      -1.57435      -1.73506      -1.62252      -1.46972      -1.24597      -1.07466      -1.59869       -1.7312      -1.62056
        0.015      -1.71161      -1.59705      -1.42328     -0.725944     -0.538754     -0.373953      -1.71202      -1.59698      -1.41635
         0.02      -1.52006      -1.39148      -1.22604     -0.831977      -0.65428     -0.488895      -1.52765      -1.39142      -1.22612
        0.025      -1.42178      -1.29393      -1.13269      -0.90013     -0.732924      -0.56797      -1.43395      -1.29395      -1.13754
         0.03      -1.33512       -1.2147      -1.05747     -0.945992      -0.78909     -0.625599      -1.35119      -1.21474      -1.06638
        0.035      -1.26106      -1.14999     -0.996316     -0.975297     -0.828551     -0.667313      -1.28026      -1.15003      -1.00855
         0.04      -1.19904      -1.09741     -0.947047     -0.994034     -0.856809      -0.69845      -1.22068      -1.09744     -0.961984
        0.045      -1.14728      -1.05454     -0.907363      -1.00583     -0.877391     -0.722276      -1.17084      -1.05456     -0.924495
         0.05      -1.10386      -1.01922     -0.875179      -1.01272     -0.892448     -0.741337       -1.1289      -1.01924     -0.894105
        0.055      -1.06707     -0.989719     -0.848782       -1.0167     -0.903772     -0.756555      -1.09329     -0.989732     -0.869193
         0.06      -1.03555     -0.964724     -0.826854      -1.01867      -0.91228     -0.769073       -1.0627     -0.964731     -0.848504
        0.065      -1.00823     -0.943236     -0.808391       -1.0192     -0.918678     -0.779494      -1.03613     -0.943241     -0.831088
         0.07     -0.984276     -0.924508     -0.792635      -1.01866      -0.92346      -0.78826      -1.01279     -0.924512      -0.81622
        0.075     -0.963078     -0.907994     -0.779026      -1.01726     -0.926895     -0.795795     -0.992079     -0.907994     -0.803366
         0.08     -0.944167     -0.893295      -0.76715      -1.01559     -0.929509     -0.802198      -0.97357     -0.893292     -0.792143
        0.085     -0.927143     -0.880069     -0.756662      -1.01354     -0.931341     -0.807705     -0.956877     -0.880066      -0.78222
         0.09     -0.911717     -0.868079     -0.747318      -1.01128     -0.932584     -0.812468     -0.941723     -0.868076     -0.773366
        0.095     -0.897643     -0.857124     -0.738915      -1.00878     -0.933302     -0.816569     -0.927872      -0.85712     -0.765386
          0.1     -0.884726     -0.847045     -0.731291      -1.00603     -0.933483     -0.820064     -0.915134      -0.84704     -0.758131
        0.105     -0.872829     -0.837739     -0.724343      -1.00337     -0.933464      -0.82311     -0.903384     -0.837733     -0.751505
         0.11     -0.861846     -0.829128     -0.717994      -1.00071     -0.933229     -0.825807     -0.892521     -0.829122     -0.745437
        0.115     -0.851622     -0.821082     -0.712118     -0.997974     -0.932719     -0.828079     -0.882391     -0.821076     -0.739805
         0.12     -0.842094     -0.813557     -0.706673     -0.995271      -0.93207     -0.830065     -0.872937     -0.813552     -0.734573
        0.125     -0.833162     -0.806473     -0.701584     -0.992408      -0.93111     -0.831654     -0.864058     -0.806468     -0.729668
         0.13     -0.824789      -0.79981     -0.696833     -0.989581     -0.930029     -0.832994     -0.855725     -0.799804     -0.725074
        0.135     -0.816927     -0.793531     -0.692385     -0.986878     -0.928942     -0.834171     -0.847887     -0.793525     -0.720762
         0.14     -0.809509     -0.787583     -0.688194     -0.984169      -0.92773     -0.835118     -0.840483     -0.787578     -0.716688
        0.145     -0.802503     -0.781945     -0.684241     -0.981483     -0.926439     -0.835882      -0.83348      -0.78194     -0.712833
         0.15     -0.795875     -0.776591     -0.680503     -0.978844     -0.925094     -0.836484     -0.826843     -0.776584     -0.709176
        0.155      -0.78958     -0.771483     -0.676943     -0.976183     -0.923655     -0.836922     -0.820533     -0.771477     -0.705684
         0.16       -0.7836     -0.766615     -0.673567     -0.973552     -0.922156     -0.837208     -0.814531     -0.766609     -0.702361
        0.165      -0.77791     -0.761966     -0.670352     -0.970933     -0.920597     -0.837347     -0.808811      -0.76196     -0.699187
         0.17     -0.772494     -0.757525     -0.667289     -0.968396     -0.919052     -0.837413     -0.803359      -0.75752     -0.696155
        0.175     -0.767324     -0.753271     -0.664362     -0.965883      -0.91747      -0.83737     -0.798147     -0.753265     -0.693247
         0.18     -0.762384     -0.749195     -0.661562     -0.963398     -0.915861     -0.837232     -0.793162     -0.749189      -0.69046
        0.185     -0.757658     -0.745279     -0.658877     -0.960948     -0.914235     -0.837008     -0.788386     -0.745274     -0.687778
         0.19     -0.753138     -0.741522     -0.656306     -0.958538     -0.912604     -0.836724     -0.783811     -0.741516     -0.685202
        0.195     -0.748792     -0.737895     -0.653824     -0.956133     -0.910933     -0.836339     -0.779407      -0.73789     -0.682708
          0.2     -0.744627     -0.734409     -0.651442     -0.953754     -0.909251     -0.835901      -0.77518     -0.734403     -0.680308
        0.205     -0.740611     -0.731034     -0.649135     -0.951346     -0.907496     -0.835327     -0.771099     -0.731028     -0.677976
         0.21     -0.736772     -0.727801     -0.646933      -0.94906     -0.905831     -0.834792     -0.767194     -0.727796     -0.675745
        0.215      -0.73307     -0.724672     -0.644801     -0.946783     -0.904141     -0.834186     -0.763423     -0.724668     -0.673579
         0.22     -0.729502     -0.721647     -0.642741     -0.944526     -0.902441     -0.833528     -0.759783     -0.721642     -0.671478
        0.225     -0.726046     -0.718705     -0.640734     -0.942255     -0.900699     -0.832784     -0.756253       -0.7187     -0.669427
         0.23     -0.722758     -0.715905     -0.638836     -0.940118     -0.899066     -0.832114     -0.752889     -0.715899     -0.667482
        0.235     -0.719567     -0.713177     -0.636984      -0.93797     -0.897398     -0.831375     -0.749624     -0.713172      -0.66558
         0.24     -0.716474     -0.710522     -0.635179     -0.935816       -0.8957     -0.830567     -0.746451     -0.710517     -0.663721
        0.245     -0.713482     -0.707947     -0.633428      -0.93368     -0.893999     -0.829724      -0.74338     -0.707942     -0.661913
         0.25      -0.71059     -0.705451     -0.631732     -0.931589     -0.892321     -0.828871     -0.740407     -0.705446     -0.660156
        0.255     -0.707786     -0.703023     -0.630081     -0.929462      -0.89059     -0.827939     -0.737521     -0.703019     -0.658443
         0.26     -0.705076     -0.700671     -0.628484     -0.927411     -0.888915     -0.827029     -0.734728     -0.700667      -0.65678
        0.265     -0.702446     -0.698381     -0.626928     -0.925372     -0.887235     -0.826087     -0.732013     -0.698376     -0.655155
         0.27      -0.69991     -0.696168     -0.625427     -0.923383      -0.88559     -0.825156     -0.729392     -0.696164     -0.653585
        0.275      -0.69744     -0.694007     -0.623959     -0.921398     -0.883934      -0.82419     -0.726838     -0.694002     -0.652046
         0.28     -0.695045     -0.691904     -0.622532     -0.919427     -0.882277     -0.823198     -0.724356       -0.6919     -0.650545
        0.285     -0.692712     -0.689851     -0.621136     -0.917465     -0.880617      -0.82218     -0.721936     -0.689846     -0.649073
         0.29     -0.690451     -0.687856     -0.619781     -0.915539     -0.878979     -0.821163     -0.719588     -0.687851     -0.647641
        0.295     -0.688253      -0.68591     -0.618459     -0.913625     -0.877343     -0.820129     -0.717302     -0.685906     -0.646242
          0.3     -0.686113     -0.684012     -0.617169      -0.91173     -0.875714     -0.819082     -0.715074     -0.684008     -0.644872
        0.305     -0.684023     -0.682151     -0.615902      -0.90983     -0.874067     -0.817996     -0.712895     -0.682147     -0.643524
         0.31     -0.682022      -0.68037     -0.614697     -0.908026     -0.872511     -0.816991     -0.710805     -0.680366     -0.642238
        0.315      -0.68005     -0.678607     -0.613498      -0.90618     -0.870901     -0.815909     -0.708744     -0.678603     -0.640956
         0.32     -0.678126     -0.676881     -0.612324     -0.904341     -0.869288     -0.814808      -0.70673     -0.676877     -0.639698
        0.325     -0.676253     -0.675197     -0.611178     -0.902529     -0.867692     -0.813708     -0.704767     -0.675193     -0.638467
         0.33     -0.674423     -0.673548     -0.610055     -0.900728       -0.8661     -0.812595     -0.702848     -0.673545     -0.637258
        0.335     -0.672639     -0.671936     -0.608955      -0.89894     -0.864513     -0.811475     -0.700973     -0.671932     -0.636073
         0.34     -0.670936     -0.670398     -0.607917     -0.897265     -0.863034     -0.810452     -0.699182     -0.670395     -0.634949
        0.345     -0.669245     -0.668863     -0.606873     -0.895527     -0.861483     -0.809341     -0.697401      -0.66886     -0.633817
         0.35     -0.667582     -0.667349     -0.605839     -0.893782     -0.859917     -0.808201     -0.695647     -0.667346     -0.632694
        0.355     -0.665981      -0.66589     -0.604848     -0.892096     -0.858405     -0.807105     -0.693956     -0.665886     -0.631615
         0.36     -0.664405     -0.664448     -0.603866       -0.8904     -0.856877      -0.80598     -0.692289     -0.664445     -0.630545
        0.365     -0.662864     -0.663036     -0.602903      -0.88872     -0.855358     -0.804853     -0.690659     -0.663033     -0.629493
         0.37      -0.66136     -0.661655     -0.601962     -0.887061     -0.853855     -0.803731     -0.689065     -0.661652     -0.628462
        0.375     -0.659901     -0.660312     -0.601049     -0.885447     -0.852393      -0.80264     -0.687516     -0.660309     -0.627459
         0.38     -0.658434     -0.658956     -0.600116     -0.883732     -0.850821     -0.801425     -0.685958     -0.658953     -0.626435
        0.385     -0.657026     -0.657653     -0.599227     -0.882111     -0.849342     -0.800298      -0.68446      -0.65765     -0.625455
         0.39      -0.65565     -0.656377     -0.598356     -0.880506     -0.847873     -0.799171     -0.682994     -0.656374     -0.624494
        0.395     -0.654297     -0.655119     -0.597496     -0.878899     -0.846398      -0.79803     -0.681552     -0.655116     -0.623542
          0.4     -0.652973     -0.653885     -0.596652     -0.877307     -0.844934     -0.796891     -0.680138     -0.653883     -0.622607
        0.405     -0.651695     -0.652692      -0.59584     -0.875778     -0.843528     -0.795801      -0.67877      -0.65269     -0.621704
         0.41     -0.650417     -0.651495     -0.595019     -0.874174     -0.842043     -0.794625     -0.677403     -0.651493     -0.620791
        0.415     -0.649174      -0.65033     -0.594221     -0.872631     -0.840616     -0.793497     -0.676072     -0.650328     -0.619902
         0.42     -0.647956     -0.649184     -0.593437     -0.871097     -0.839194     -0.792367     -0.674764     -0.649182     -0.619026
        0.425     -0.646761     -0.648058     -0.592665     -0.869572     -0.837778     -0.791237     -0.673481     -0.648056     -0.618163
         0.43     -0.645588      -0.64695     -0.591905     -0.868058     -0.836369     -0.790106     -0.672219     -0.646948     -0.617311
        0.435     -0.644437     -0.645861     -0.591158     -0.866554     -0.834967     -0.788976      -0.67098     -0.645859     -0.616472
         0.44     -0.643308     -0.644789     -0.590422     -0.865061     -0.833573     -0.787846     -0.669763     -0.644787     -0.615644
        0.445     -0.642199     -0.643734     -0.589697     -0.863577     -0.832185     -0.786717     -0.668565     -0.643732     -0.614828
         0.45     -0.641107     -0.642694     -0.588981     -0.862101     -0.830802     -0.785587     -0.667386     -0.642693      -0.61402
        0.455     -0.640035      -0.64167     -0.588276     -0.860632     -0.829424     -0.784455     -0.666226     -0.641668     -0.613223
         0.46     -0.638979     -0.640658     -0.587578     -0.859165     -0.828045     -0.783317     -0.665083     -0.640657     -0.612433
        0.465     -0.637945     -0.639665     -0.586888     -0.857724     -0.826689     -0.782197     -0.663962     -0.639664     -0.611653
         0.47     -0.636937     -0.638696     -0.586222     -0.856313     -0.825362     -0.781101     -0.662868     -0.638695     -0.610896
        0.475      -0.63598     -0.637777     -0.585598     -0.854985     -0.824118     -0.780085     -0.661827     -0.637776     -0.610182
         0.48     -0.634996     -0.636826     -0.584941     -0.853563     -0.822774     -0.778961     -0.660756     -0.636825     -0.609434
        0.485     -0.634028     -0.635889     -0.584292     -0.852154     -0.821441     -0.777843     -0.659701     -0.635889     -0.608694
         0.49     -0.633078     -0.634968     -0.583655      -0.85076     -0.820122     -0.776734     -0.658665     -0.634968     -0.607966
        0.495     -0.632145     -0.634062     -0.583028     -0.849382     -0.818817     -0.775635     -0.657647     -0.634062     -0.607249
          0.5     -0.631238      -0.63318      -0.58242     -0.848046     -0.817552     -0.774573     -0.656656      -0.63318     -0.606551
        0.505     -0.630311     -0.632275     -0.581788     -0.846618     -0.816192     -0.773407     -0.655643     -0.632275     -0.605826
         0.51     -0.629416       -0.6314     -0.581179     -0.845254     -0.814894     -0.772303     -0.654663       -0.6314     -0.605128
        0.515     -0.628542     -0.630543     -0.580585      -0.84392     -0.813625     -0.771222     -0.653704     -0.630544     -0.604444
         0.52     -0.627673     -0.629691     -0.579991     -0.842571     -0.812341     -0.770126     -0.652751     -0.629691      -0.60376
        0.525     -0.626832     -0.628864     -0.579419     -0.841262     -0.811095     -0.769061     -0.651827     -0.628865     -0.603099
         0.53     -0.625997     -0.628042     -0.578847     -0.839955     -0.809849     -0.767994     -0.650908     -0.628042     -0.602438
        0.535     -0.625164     -0.627219     -0.578272     -0.838618     -0.808572     -0.766892     -0.649991      -0.62722     -0.601773
         0.54      -0.62435     -0.626415     -0.577711     -0.837324     -0.807335     -0.765826     -0.649095     -0.626415     -0.601124
        0.545     -0.623547     -0.625619     -0.577155     -0.836034     -0.806102      -0.76476      -0.64821      -0.62562      -0.60048
         0.55     -0.622754     -0.624831     -0.576604     -0.834748     -0.804871     -0.763693     -0.647333     -0.624832      -0.59984
        0.555     -0.621965     -0.624047     -0.576054     -0.833459     -0.803636     -0.762619     -0.646463     -0.624048     -0.599201
         0.56     -0.621211     -0.623295     -0.575531     -0.832223     -0.802453     -0.761595     -0.645627     -0.623296     -0.598591
        0.565     -0.620445      -0.62253     -0.574993     -0.830951     -0.801233     -0.760529     -0.644779     -0.622532     -0.597966
         0.57     -0.619697     -0.621783      -0.57447     -0.829708      -0.80004     -0.759489     -0.643952     -0.621785     -0.597356
        0.575     -0.618965      -0.62105     -0.573956     -0.828486     -0.798868     -0.758467     -0.643138     -0.621051     -0.596755
         0.58     -0.618231     -0.620313     -0.573438     -0.827246     -0.797676     -0.757421     -0.642324     -0.620315      -0.59615
        0.585     -0.617503      -0.61958      -0.57292     -0.826008     -0.796485     -0.756374     -0.641515     -0.619583     -0.595546
         0.59     -0.616796     -0.618869      -0.57242     -0.824798     -0.795321     -0.755352     -0.640729     -0.618872      -0.59496
        0.595     -0.616092      -0.61816      -0.57192     -0.823587     -0.794155     -0.754324     -0.639946     -0.618163     -0.594375
          0.6     -0.615394     -0.617456     -0.571421     -0.822381     -0.792994     -0.753299     -0.639169     -0.617458     -0.593791
        0.605     -0.614705     -0.616758     -0.570928     -0.821183     -0.791839     -0.752278     -0.638401     -0.616761     -0.593212
         0.61     -0.614025     -0.616068     -0.570439     -0.819992     -0.790691     -0.751262     -0.637642     -0.616071     -0.592638
        0.615     -0.613352     -0.615385     -0.569954     -0.818809     -0.789549     -0.750249      -0.63689     -0.615388     -0.592068
         0.62     -0.612687     -0.614708     -0.569473     -0.817632     -0.788413     -0.749241     -0.636147     -0.614712     -0.591503
        0.625     -0.612028     -0.614037     -0.568995     -0.816461     -0.787282     -0.748235     -0.635411     -0.614041     -0.590941
         0.63     -0.611377     -0.613373     -0.568522     -0.815297     -0.786158     -0.747232     -0.634682     -0.613377     -0.590385
        0.635     -0.610731     -0.612713     -0.568051     -0.814134     -0.785033     -0.746229     -0.633959     -0.612717      -0.58983
         0.64     -0.610086     -0.612053     -0.567578     -0.812966     -0.783903     -0.745216     -0.633238     -0.612057     -0.589274
        0.645     -0.609471     -0.611423      -0.56713     -0.811864     -0.782839      -0.74427     -0.632547     -0.611427     -0.588744
         0.65     -0.608848     -0.610783     -0.566672     -0.810733     -0.781744      -0.74329     -0.631848     -0.610788     -0.588204
        0.655     -0.608259     -0.610178     -0.566244     -0.809672      -0.78072     -0.742382     -0.631185     -0.610182     -0.587695
         0.66      -0.60765     -0.609551     -0.565794     -0.808549     -0.779632     -0.741403       -0.6305     -0.609555     -0.587163
        0.665     -0.607044     -0.608926     -0.565345      -0.80743     -0.778547     -0.740428     -0.629819     -0.608931     -0.586632
         0.67     -0.606444     -0.608306     -0.564898     -0.806321     -0.777472      -0.73946     -0.629144     -0.608311     -0.586104
        0.675     -0.605853     -0.607695     -0.564458     -0.805227     -0.776411     -0.738505     -0.628479     -0.607701     -0.585584
         0.68      -0.60527     -0.607091     -0.564023     -0.804147     -0.775364     -0.737562     -0.627821     -0.607096     -0.585068
        0.685     -0.604663     -0.606462     -0.563563     -0.802987     -0.774235     -0.736534     -0.627139     -0.606467     -0.584527
         0.69     -0.604095     -0.605873     -0.563138      -0.80192       -0.7732     -0.735601       -0.6265      -0.60588     -0.584024
        0.695     -0.603538     -0.605294     -0.562721     -0.800878      -0.77219     -0.734692     -0.625868     -0.605299     -0.583527
          0.7     -0.602972     -0.604705     -0.562294     -0.799809     -0.771151     -0.733751      -0.62523     -0.604711     -0.583021
        0.705     -0.602411      -0.60412     -0.561869     -0.798746     -0.770119     -0.732815     -0.624597     -0.604127     -0.582518
         0.71     -0.601856     -0.603541     -0.561447     -0.797691     -0.769093     -0.731884      -0.62397     -0.603548     -0.582018
        0.715     -0.601308     -0.602969      -0.56103     -0.796649      -0.76808     -0.730965      -0.62335     -0.602975     -0.581523
         0.72     -0.600766     -0.602402     -0.560617      -0.79562     -0.767079     -0.730055     -0.622737     -0.602409     -0.581033
        0.725     -0.600223     -0.601834     -0.560202     -0.794578     -0.766065     -0.729132     -0.622122      -0.60184     -0.580539
         0.73     -0.599678     -0.601263     -0.559782     -0.793521     -0.765037     -0.728196     -0.621507     -0.601271     -0.580044
        0.735     -0.599154     -0.600713     -0.559381     -0.792507     -0.764051     -0.727299     -0.620912      -0.60072     -0.579566
         0.74     -0.598627     -0.600159     -0.558975      -0.79149     -0.763062     -0.726396     -0.620316     -0.600168     -0.579084
        0.745     -0.598103     -0.599609      -0.55857      -0.79048     -0.762077     -0.725497     -0.619722     -0.599617     -0.578603
         0.75     -0.597579     -0.599058     -0.558163     -0.789464     -0.761087     -0.724592     -0.619128     -0.599066     -0.578121
        0.755     -0.597077     -0.598528     -0.557775     -0.788485     -0.760135     -0.723724     -0.618557     -0.598537     -0.577659
         0.76     -0.596567     -0.597991     -0.557379     -0.787493     -0.759167     -0.722839     -0.617979     -0.597999     -0.577188
        0.765     -0.596059     -0.597455     -0.556983     -0.786503     -0.758203     -0.721955     -0.617402     -0.597463     -0.576717
         0.77     -0.595556     -0.596923     -0.556589      -0.78552     -0.757244     -0.721077     -0.616831     -0.596932      -0.57625
        0.775     -0.595057     -0.596396     -0.556198     -0.784542     -0.756291     -0.720202     -0.616264     -0.596405     -0.575785
         0.78      -0.59456     -0.595871     -0.555808     -0.783569     -0.755342     -0.719331     -0.615701      -0.59588     -0.575323
        0.785     -0.594068     -0.595349      -0.55542     -0.782602     -0.754398     -0.718464     -0.615141     -0.595359     -0.574862
         0.79     -0.593578      -0.59483     -0.555034     -0.781637     -0.753457     -0.717599     -0.614585      -0.59484     -0.574403
        0.795     -0.593088      -0.59431     -0.554645      -0.78067     -0.752512     -0.716729     -0.614028      -0.59432     -0.573942
          0.8      -0.59261     -0.593803     -0.554267     -0.779728     -0.751594     -0.715885     -0.613486     -0.593814     -0.573494
        0.805      -0.59214     -0.593303     -0.553895     -0.778807     -0.750696      -0.71506      -0.61295     -0.593314      -0.57305
         0.81     -0.591667     -0.592801      -0.55352      -0.77787      -0.74978     -0.714217     -0.612412     -0.592812     -0.572604
        0.815     -0.591188     -0.592291     -0.553136     -0.776921     -0.748853      -0.71336     -0.611866     -0.592301     -0.572149
         0.82     -0.590723     -0.591796     -0.552765     -0.775999     -0.747952      -0.71253     -0.611339     -0.591808      -0.57171
        0.825     -0.590269     -0.591312     -0.552404     -0.775099     -0.747074     -0.711722      -0.61082     -0.591324     -0.571278
         0.83     -0.589805     -0.590817     -0.552031     -0.774178     -0.746174      -0.71089     -0.610292     -0.590829     -0.570836
        0.835     -0.589344     -0.590325      -0.55166     -0.773261     -0.745278     -0.710062     -0.609767     -0.590337     -0.570396
         0.84     -0.588886     -0.589836      -0.55129     -0.772351     -0.744388     -0.709239     -0.609245     -0.589848     -0.569958
        0.845     -0.588431     -0.589351     -0.550923     -0.771446     -0.743504      -0.70842     -0.608727     -0.589363     -0.569522
         0.85     -0.587979     -0.588867     -0.550557     -0.770546     -0.742623     -0.707605     -0.608212      -0.58888     -0.569088
        0.855     -0.587525     -0.588383     -0.550189     -0.769644     -0.741742     -0.706787     -0.607696     -0.588395     -0.568652
         0.86     -0.587085     -0.587912     -0.549832     -0.768766     -0.740883     -0.705993     -0.607196     -0.587926      -0.56823
        0.865     -0.586646     -0.587442     -0.549476     -0.767889     -0.740025     -0.705198     -0.606694     -0.587455     -0.567806
         0.87     -0.586205     -0.586969     -0.549116     -0.767008     -0.739164     -0.704398     -0.606191     -0.586982      -0.56738
        0.875     -0.585766     -0.586499     -0.548757     -0.766132     -0.738306     -0.703603     -0.605691     -0.586512     -0.566955
         0.88     -0.585329     -0.586031     -0.548399      -0.76526     -0.737453      -0.70281     -0.605194     -0.586044     -0.566532
        0.885     -0.584891     -0.585561      -0.54804     -0.764388     -0.736599     -0.702016     -0.604696     -0.585576     -0.566107
         0.89     -0.584464     -0.585103      -0.54769      -0.76353     -0.735759     -0.701235     -0.604208     -0.585117     -0.565692
        0.895     -0.584037     -0.584645     -0.547339     -0.762677     -0.734924     -0.700459     -0.603723      -0.58466     -0.565278
          0.9      -0.58362     -0.584197     -0.546997     -0.761853     -0.734118     -0.699711     -0.603247     -0.584212     -0.564872
        0.905     -0.583199     -0.583744     -0.546649     -0.761013     -0.733296     -0.698946     -0.602766     -0.583759      -0.56446
         0.91     -0.582783     -0.583297     -0.546306     -0.760185     -0.732485     -0.698192     -0.602294     -0.583314     -0.564056
        0.915     -0.582373     -0.582856     -0.545968     -0.759375     -0.731693     -0.697456     -0.601823     -0.582871     -0.563653
         0.92     -0.581954     -0.582406      -0.54562     -0.758536      -0.73087     -0.696688     -0.601346      -0.58242     -0.563242
        0.925     -0.581538     -0.581958     -0.545275     -0.757705     -0.730056     -0.695929     -0.600872     -0.581974     -0.562835
         0.93     -0.581125     -0.581514     -0.544931      -0.75688     -0.729248     -0.695175     -0.600402      -0.58153      -0.56243
        0.935     -0.580715     -0.581073      -0.54459     -0.756063     -0.728448     -0.694428     -0.599935     -0.581089     -0.562027
         0.94     -0.580308     -0.580635     -0.544251     -0.755255     -0.727655     -0.693688     -0.599473     -0.580652     -0.561627
        0.945     -0.579907     -0.580203     -0.543916     -0.754461     -0.726878     -0.692963     -0.599015      -0.58022     -0.561232
         0.95     -0.579493     -0.579758     -0.543569     -0.753629     -0.726062     -0.692198     -0.598542     -0.579773     -0.560822
        0.955      -0.57908     -0.579314     -0.543221     -0.752799     -0.725247     -0.691435     -0.598072     -0.579328     -0.560413
         0.96     -0.578669     -0.578872     -0.542875     -0.751978     -0.724441     -0.690679     -0.597609      -0.57889      -0.56001
        0.965     -0.578278      -0.57845     -0.542547     -0.751203     -0.723682      -0.68997     -0.597162     -0.578468     -0.559623
         0.97     -0.577889      -0.57803      -0.54222     -0.750427     -0.722922     -0.689259     -0.596719     -0.578048     -0.559237
        0.975     -0.577501     -0.577612     -0.541895      -0.74965      -0.72216     -0.688547     -0.596277     -0.577631     -0.558854
         0.98     -0.577116     -0.577197     -0.541571      -0.74889     -0.721415     -0.687851     -0.595838     -0.577215     -0.558471
        0.985     -0.576731     -0.576781     -0.541246     -0.748128     -0.720668     -0.687152       -0.5954     -0.576801      -0.55809
         0.99     -0.576345     -0.576364      -0.54092     -0.747363     -0.719918      -0.68645     -0.594958     -0.576382     -0.557704
        0.995     -0.575956     -0.575945      -0.54059      -0.74659     -0.719159     -0.685738     -0.594515     -0.575962     -0.557317
            1     -0.575568     -0.575527     -0.540261     -0.745824     -0.718408     -0.685033     -0.594076     -0.575547     -0.556933
        1.005     -0.575185     -0.575114     -0.539936     -0.745067     -0.717665     -0.684336      -0.59364     -0.575133      -0.55655
         1.01     -0.574804     -0.574702     -0.539612     -0.744312     -0.716923      -0.68364     -0.593206     -0.574721      -0.55617
        1.015     -0.574423     -0.574292     -0.539288      -0.74356     -0.716186     -0.682948     -0.592773     -0.574311      -0.55579
         1.02     -0.574045     -0.573884     -0.538965     -0.742813     -0.715453     -0.682259     -0.592343     -0.573903     -0.555412
        1.025     -0.573669     -0.573478     -0.538645     -0.742072     -0.714725     -0.681576     -0.591917     -0.573499     -0.555037
         1.03     -0.573294     -0.573074     -0.538325     -0.741333        -0.714     -0.680895     -0.591489     -0.573093     -0.554661
        1.035      -0.57292      -0.57267     -0.538005     -0.740594     -0.713274     -0.680212     -0.591065     -0.572691     -0.554288
         1.04     -0.572549      -0.57227     -0.537687     -0.739864     -0.712558     -0.679538     -0.590644      -0.57229     -0.553916
        1.045     -0.572179      -0.57187      -0.53737     -0.739137     -0.711845     -0.678868     -0.590223     -0.571892     -0.553546
         1.05     -0.571809     -0.571472     -0.537053     -0.738416     -0.711136     -0.678201     -0.589804     -0.571493     -0.553175
        1.055     -0.571444     -0.571078      -0.53674     -0.737694     -0.710427     -0.677534     -0.589389     -0.571099     -0.552809