# Probe 0 (0.3889 0.3889 0)
# Probe 1 (0.4243 0.4243 0)
# Probe 2 (0.4596 0.4596 0)
# Probe 3 (0 0.55 0)
# Probe 4 (0 0.6 0)
# Probe 5 (0 0.65 0)
# Probe 6 (0.3889 -0.3889 0)
# Probe 7 (0.4243 -0.4243 0)
# Probe 8 (0.4596 -0.4596 0)
#       Probe             0             1             2             3             4             5             6             7             8
#        Time
        0.005             (0.875285 -0.777412 -2.50324e-17)             (0.976783 -0.715741 -2.73975e-18)             (0.944791 -0.640459 2.84056e-17)             (1.67527 -0.0220557 -3.60079e-20)             (1.64189 -0.0203166 -4.7325e-20)             (1.58213 -0.0183657 5.384e-20)             (0.935752 0.776604 1.53989e-17)             (0.976709 0.715678 1.81149e-17)             (0.993513 0.639452 7.1856e-18)
         0.01             (0.860628 -0.812918 -7.60953e-19)             (1.02409 -0.756899 -8.92719e-20)             (0.982078 -0.672867 1.0029e-18)             (1.71689 -0.0221591 -1.27663e-22)             (1.74008 -0.0226204 6.36438e-21)             (1.66319 -0.0199299 -6.45336e-21)             (0.924815 0.81258 4.24027e-19)             (1.02408 0.756895 6.65919e-19)             (1.03419 0.672151 2.7113e-19)
        0.015             (0.814902 -0.762676 -8.04107e-19)             (1.01008 -0.756901 -8.16302e-20)             (0.977916 -0.685644 8.88582e-19)             (1.63116 -0.0208252 -8.38429e-22)             (1.73435 -0.0222098 2.88638e-21)             (1.67728 -0.0198412 -2.76762e-21)             (0.875594 0.762619 4.83244e-19)             (1.01008 0.756904 6.11343e-19)             (1.0314 0.68497 2.44956e-19)
         0.02             (0.768893 -0.71562 -7.14873e-19)             (0.991734 -0.752973 -7.07901e-20)             (0.973637 -0.69519 7.65361e-19)             (1.5467 -0.0191147 -8.91385e-22)             (1.71976 -0.0210977 3.41914e-21)             (1.68673 -0.0193241 -3.30589e-21)             (0.826238 0.71579 4.3178e-19)             (0.991737 0.752977 5.33663e-19)             (1.02815 0.694519 2.13189e-19)
        0.025             (0.724294 -0.672373 -6.68737e-19)             (0.970436 -0.744564 -6.55544e-20)             (0.968002 -0.701502 7.07394e-19)             (1.46599 -0.0175144 -9.50788e-22)             (1.69737 -0.0196531 3.81298e-21)             (1.69096 -0.0184724 -3.69282e-21)             (0.778509 0.672738 4.05519e-19)             (0.970439 0.744568 4.96963e-19)             (1.02325 0.700825 1.98474e-19)
         0.03             (0.682738 -0.633218 -6.28356e-19)             (0.947437 -0.732849 -6.12015e-20)             (0.961025 -0.704961 6.6053e-19)             (1.39162 -0.016106 -9.7563e-22)             (1.66993 -0.0180601 4.10131e-21)             (1.69087 -0.0173683 -3.97417e-21)             (0.734095 0.633757 3.81812e-19)             (0.947441 0.732853 4.67047e-19)             (1.01676 0.704277 1.86561e-19)
        0.035             (0.644794 -0.598004 -5.93922e-19)             (0.923589 -0.718884 -5.75929e-20)             (0.952794 -0.705973 6.22343e-19)             (1.32434 -0.0148677 -9.79694e-22)             (1.63943 -0.0164177 4.31076e-21)             (1.68718 -0.0160809 -4.17658e-21)             (0.69357 0.598703 3.61313e-19)             (0.923593 0.718888 4.42539e-19)             (1.00882 0.705285 1.76834e-19)
         0.04             (0.610498 -0.566405 -5.6508e-19)             (0.899505 -0.703516 -5.46562e-20)             (0.94346 -0.704923 5.91517e-19)             (1.26397 -0.0137634 -9.72457e-22)             (1.60735 -0.0147916 4.46623e-21)             (1.68054 -0.0146638 -4.3266e-21)             (0.656957 0.567249 3.44022e-19)             (0.899509 0.70352 4.22603e-19)             (0.999609 0.704234 1.6895e-19)
        0.045             (0.579628 -0.538028 -5.40996e-19)             (0.87562 -0.687381 -5.22813e-20)             (0.933204 -0.702154 5.66642e-19)             (1.20997 -0.0127599 -9.59178e-22)             (1.57471 -0.0132263 4.58398e-21)             (1.67154 -0.0131682 -4.44066e-21)             (0.624008 0.539006 3.29528e-19)             (0.875623 0.687384 4.06354e-19)             (0.989342 0.701471 1.62549e-19)
         0.05             (0.551852 -0.512483 -5.20766e-19)             (0.85223 -0.670933 -5.03559e-20)             (0.922203 -0.697971 5.46432e-19)             (1.16168 -0.011823 -9.43005e-22)             (1.54228 -0.0117051 4.67475e-21)             (1.66063 -0.0116031 -4.53082e-21)             (0.594366 0.513584 3.17324e-19)             (0.852234 0.670937 3.92986e-19)             (0.978222 0.697302 1.57308e-19)
        0.055             (0.526813 -0.489408 -5.03605e-19)             (0.829532 -0.654493 -4.87829e-20)             (0.910628 -0.692638 5.29828e-19)             (1.11839 -0.010942 -9.24941e-22)             (1.51051 -0.0102487 4.74567e-21)             (1.64825 -0.0100093 -4.60227e-21)             (0.567648 0.490622 3.06956e-19)             (0.829535 0.654497 3.81847e-19)             (0.966439 0.691989 1.52964e-19)
         0.06             (0.50417 -0.468478 -4.88883e-19)             (0.807642 -0.638277 -4.74851e-20)             (0.898629 -0.686381 5.16013e-19)             (1.07946 -0.0101117 -9.06292e-22)             (1.4797 -0.00886327 4.80131e-21)             (1.63476 -0.00840972 -4.66031e-21)             (0.543487 0.469799 2.98052e-19)             (0.807645 0.638281 3.72434e-19)             (0.954164 0.685758 1.49313e-19)
        0.065             (0.483614 -0.449415 -4.76108e-19)             (0.786625 -0.62243 -4.64021e-20)             (0.88634 -0.679391 5.04366e-19)             (1.0443 -0.00932776 -8.87796e-22)             (1.45005 -0.00754718 4.84525e-21)             (1.62047 -0.00681635 -4.70781e-21)             (0.521555 0.450834 2.9032e-19)             (0.786628 0.622434 3.64367e-19)             (0.941542 0.678803 1.46202e-19)
         0.07             (0.464871 -0.431976 -4.64899e-19)             (0.766505 -0.607039 -4.54878e-20)             (0.873873 -0.671832 4.94416e-19)             (1.01242 -0.00858354 -8.69704e-22)             (1.42164 -0.00629412 4.88006e-21)             (1.60562 -0.0052389 -4.74695e-21)             (0.50156 0.433488 2.83531e-19)             (0.766509 0.607043 3.57359e-19)             (0.9287 0.671284 1.43514e-19)
        0.075             (0.44771 -0.415956 -4.54969e-19)             (0.747282 -0.592156 -4.47073e-20)             (0.861323 -0.66384 4.85816e-19)             (0.9834 -0.00787319 -8.52261e-22)             (1.39451 -0.00508528 4.90736e-21)             (1.5904 -0.00367418 -4.77973e-21)             (0.483253 0.417556 2.77513e-19)             (0.747285 0.59216 3.51196e-19)             (0.915742 0.663338 1.41164e-19)
         0.08             (0.43193 -0.401181 -4.46103e-19)             (0.728934 -0.577808 -4.40346e-20)             (0.848768 -0.655526 4.78307e-19)             (0.95686 -0.00720018 -8.35286e-22)             (1.36866 -0.00392897 4.92907e-21)             (1.57497 -0.00213873 -4.80703e-21)             (0.466422 0.402864 2.72138e-19)             (0.728937 0.577812 3.45727e-19)             (0.902753 0.655075 1.39089e-19)
        0.085             (0.417361 -0.387502 -4.38116e-19)             (0.71143 -0.564002 -4.34481e-20)             (0.836269 -0.646985 4.71675e-19)             (0.93249 -0.00656163 -8.19057e-22)             (1.34406 -0.00282207 4.94597e-21)             (1.55948 -0.00063544 -4.82977e-21)             (0.450884 0.389264 2.67294e-19)             (0.711434 0.564005 3.40821e-19)             (0.889803 0.646589 1.37236e-19)
         0.09             (0.403858 -0.374791 -4.30874e-19)             (0.694734 -0.550732 -4.2932e-20)             (0.823878 -0.638293 4.65768e-19)             (0.910026 -0.00595586 -8.03514e-22)             (1.32065 -0.00176189 4.95904e-21)             (1.54402 0.000831925 -4.84877e-21)             (0.436485 0.37663 2.62901e-19)             (0.694737 0.550736 3.36383e-19)             (0.876949 0.637956 1.35569e-19)
        0.095             (0.391299 -0.362942 -4.24263e-19)             (0.678803 -0.537987 -4.24735e-20)             (0.811633 -0.629514 4.60457e-19)             (0.889246 -0.00537854 -7.88758e-22)             (1.29838 -0.000742454 4.96883e-21)             (1.52867 0.00226484 -4.86437e-21)             (0.423094 0.364854 2.5889e-19)             (0.678807 0.537991 3.32336e-19)             (0.864234 0.629239 1.34054e-19)
          0.1             (0.379579 -0.351862 -4.18192e-19)             (0.663596 -0.52575 -4.20623e-20)             (0.799566 -0.620698 4.55643e-19)             (0.869965 -0.0048275 -7.74794e-22)             (1.2772 0.000244183 4.97537e-21)             (1.5135 0.00367213 -4.87676e-21)             (0.410601 0.353843 2.55204e-19)             (0.6636 0.525753 3.28619e-19)             (0.851692 0.620488 1.32668e-19)
        0.105             (0.368609 -0.34147 -4.12597e-19)             (0.649071 -0.513998 -4.16916e-20)             (0.787699 -0.611886 4.51259e-19)             (0.852012 -0.00430343 -7.61344e-22)             (1.25704 0.00119396 4.98006e-21)             (1.49855 0.00504428 -4.8871e-21)             (0.398907 0.343519 2.51808e-19)             (0.649074 0.514002 3.25193e-19)             (0.83935 0.611744 1.31395e-19)
         0.11             (0.35831 -0.331698 -4.0743e-19)             (0.635185 -0.502712 -4.13564e-20)             (0.776049 -0.603112 4.47257e-19)             (0.835246 -0.00380386 -7.48534e-22)             (1.23784 0.00210941 4.98318e-21)             (1.48387 0.00638218 -4.89572e-21)             (0.387931 0.333812 2.48671e-19)             (0.635188 0.502715 3.22027e-19)             (0.827225 0.603039 1.30222e-19)
        0.115             (0.348616 -0.322486 -4.02617e-19)             (0.6219 -0.491867 -4.10489e-20)             (0.764628 -0.594403 4.43558e-19)             (0.819545 -0.00332772 -7.36263e-22)             (1.21954 0.00299206 4.98441e-21)             (1.46947 0.00768601 -4.90222e-21)             (0.377602 0.324664 2.4575e-19)             (0.621903 0.491871 3.19072e-19)             (0.815333 0.594401 1.2913e-19)
         0.12             (0.339469 -0.313782 -3.98129e-19)             (0.609178 -0.481441 -4.07664e-20)             (0.753444 -0.58578 4.40134e-19)             (0.804804 -0.00287259 -7.24528e-22)             (1.20208 0.00384387 4.98451e-21)             (1.45538 0.00895542 -4.90734e-21)             (0.367857 0.31602 2.43025e-19)             (0.609182 0.481445 3.1631e-19)             (0.803682 0.58585 1.28112e-19)
        0.125             (0.33082 -0.30554 -3.93921e-19)             (0.596986 -0.471413 -4.05043e-20)             (0.742501 -0.577258 4.36939e-19)             (0.790935 -0.00243633 -7.13405e-22)             (1.18541 0.00466941 4.98278e-21)             (1.4416 0.010195 -4.91049e-21)             (0.358643 0.307838 2.4047e-19)             (0.596989 0.471417 3.13711e-19)             (0.792278 0.577401 1.27156e-19)
         0.13             (0.322624 -0.29772 -3.89974e-19)             (0.585289 -0.461761 -4.02613e-20)             (0.731801 -0.568851 4.3396e-19)             (0.77786 -0.00201861 -7.02787e-22)             (1.16949 0.00547025 4.98008e-21)             (1.42815 0.0114086 -4.91238e-21)             (0.349913 0.300076 2.38074e-19)             (0.585293 0.461765 3.11267e-19)             (0.781125 0.569068 1.26258e-19)
        0.135             (0.314841 -0.290287 -3.86266e-19)             (0.574058 -0.452466 -4.00352e-20)             (0.721345 -0.560569 4.31175e-19)             (0.765502 -0.00161845 -6.92511e-22)             (1.15426 0.0062448 4.97695e-21)             (1.41503 0.0125922 -4.91362e-21)             (0.341625 0.292699 2.35822e-19)             (0.574062 0.452469 3.08965e-19)             (0.770222 0.56086 1.25414e-19)
         0.14             (0.307438 -0.283209 -3.82766e-19)             (0.563264 -0.443507 -3.98233e-20)             (0.71113 -0.552418 4.28554e-19)             (0.753801 -0.00123476 -6.82655e-22)             (1.13968 0.00699474 4.97293e-21)             (1.40224 0.0137466 -4.91377e-21)             (0.333743 0.285675 2.33698e-19)             (0.563268 0.44351 3.06784e-19)             (0.759568 0.552784 1.24615e-19)
        0.145             (0.300384 -0.276458 -3.7946e-19)             (0.552882 -0.434866 -3.96244e-20)             (0.701154 -0.544403 4.26086e-19)             (0.742703 -0.000866307 -6.7321e-22)             (1.12571 0.00772158 4.96828e-21)             (1.38978 0.0148733 -4.91308e-21)             (0.326234 0.278978 2.3169e-19)             (0.552886 0.43487 3.04717e-19)             (0.749161 0.544844 1.23859e-19)
         0.15             (0.293652 -0.27001 -3.76329e-19)             (0.542886 -0.426527 -3.94371e-20)             (0.691412 -0.536529 4.23755e-19)             (0.732157 -0.000512558 -6.64108e-22)             (1.11231 0.00842567 4.96311e-21)             (1.37763 0.0159723 -4.91166e-21)             (0.319068 0.272582 2.2979e-19)             (0.54289 0.426531 3.02754e-19)             (0.738997 0.537045 1.23141e-19)
        0.155             (0.28722 -0.263843 -3.73356e-19)             (0.533256 -0.418474 -3.92592e-20)             (0.681902 -0.528796 4.21538e-19)             (0.722123 -0.000171465 -6.5541e-22)             (1.09945 0.00911 4.95733e-21)             (1.3658 0.017046 -4.90947e-21)             (0.312222 0.266465 2.27985e-19)             (0.53326 0.418478 3.00881e-19)             (0.729073 0.529387 1.22457e-19)
         0.16             (0.281063 -0.257936 -3.7053e-19)             (0.523969 -0.410691 -3.90911e-20)             (0.672616 -0.521207 4.19438e-19)             (0.712561 0.00015711 -6.47032e-22)             (1.08709 0.00977531 4.95105e-21)             (1.35428 0.0180958 -4.9066e-21)             (0.30567 0.260607 2.26269e-19)             (0.523973 0.410695 2.99095e-19)             (0.719382 0.521872 1.21804e-19)
        0.165             (0.275163 -0.25227 -3.67839e-19)             (0.515006 -0.403165 -3.89314e-20)             (0.663551 -0.51376 4.17441e-19)             (0.703436 0.00047383 -6.38988e-22)             (1.07521 0.0104222 4.94431e-21)             (1.34307 0.0191235 -4.90307e-21)             (0.299393 0.25499 2.24637e-19)             (0.51501 0.403169 2.97389e-19)             (0.70992 0.514501 1.21181e-19)
         0.17             (0.269502 -0.246831 -3.65277e-19)             (0.506349 -0.395882 -3.87797e-20)             (0.6547 -0.506456 4.15541e-19)             (0.694717 0.000779296 -6.31181e-22)             (1.06378 0.0110507 4.93746e-21)             (1.33215 0.0201278 -4.89929e-21)             (0.293371 0.249597 2.23082e-19)             (0.506353 0.395886 2.95758e-19)             (0.700681 0.507271 1.20586e-19)
        0.175             (0.264065 -0.241603 -3.6283e-19)             (0.497982 -0.38883 -3.86349e-20)             (0.646057 -0.499294 4.13727e-19)             (0.686374 0.00107414 -6.23647e-22)             (1.05278 0.0116617 4.9303e-21)             (1.32152 0.0211094 -4.89504e-21)             (0.287587 0.244415 2.21597e-19)             (0.497986 0.388834 2.94196e-19)             (0.691658 0.500182 1.20016e-19)
         0.18             (0.258836 -0.236573 -3.60491e-19)             (0.489889 -0.382 -3.84967e-20)             (0.637616 -0.492272 4.11993e-19)             (0.678382 0.00135905 -6.16379e-22)             (1.04217 0.0122562 4.92288e-21)             (1.31117 0.0220694 -4.8904e-21)             (0.282025 0.23943 2.20178e-19)             (0.489894 0.382004 2.92698e-19)             (0.682846 0.493234 1.19469e-19)
        0.185             (0.253803 -0.231728 -3.58252e-19)             (0.482056 -0.375377 -3.83642e-20)             (0.629372 -0.485387 4.10333e-19)             (0.670718 0.00163442 -6.09344e-22)             (1.03194 0.0128347 4.91525e-21)             (1.30108 0.0230082 -4.88541e-21)             (0.276673 0.234629 2.1882e-19)             (0.482061 0.375381 2.91258e-19)             (0.674239 0.486423 1.18943e-19)
         0.19             (0.248953 -0.227057 -3.5611e-19)             (0.47447 -0.368953 -3.82377e-20)             (0.621318 -0.478638 4.08745e-19)             (0.663361 0.00190105 -6.02556e-22)             (1.02206 0.0133982 4.90753e-21)             (1.29126 0.0239269 -4.88019e-21)             (0.271517 0.230001 2.17521e-19)             (0.474475 0.368958 2.89875e-19)             (0.66583 0.479746 1.18438e-19)
        0.195             (0.244277 -0.22255 -3.5405e-19)             (0.467118 -0.362719 -3.81154e-20)             (0.61345 -0.472021 4.07213e-19)             (0.656291 0.00215926 -5.95963e-22)             (1.01253 0.0139472 4.89949e-21)             (1.2817 0.0248255 -4.87455e-21)             (0.266544 0.225535 2.16271e-19)             (0.467123 0.362723 2.8854e-19)             (0.657615 0.473202 1.1795e-19)
          0.2             (0.239763 -0.218198 -3.52074e-19)             (0.459989 -0.356664 -3.79982e-20)             (0.60576 -0.465534 4.05744e-19)             (0.649492 0.00240983 -5.89613e-22)             (1.00331 0.0144832 4.89135e-21)             (1.27237 0.0257063 -4.86869e-21)             (0.261746 0.221224 2.15073e-19)             (0.459994 0.356669 2.87256e-19)             (0.649586 0.466787 1.17481e-19)
        0.205             (0.235403 -0.213991 -3.50168e-19)             (0.453073 -0.350782 -3.78846e-20)             (0.598245 -0.459175 4.04322e-19)             (0.642947 0.00265266 -5.83477e-22)             (0.994399 0.0150059 4.88275e-21)             (1.26329 0.0265701 -4.86224e-21)             (0.257111 0.217057 2.13918e-19)             (0.453077 0.350787 2.86011e-19)             (0.641739 0.460499 1.17025e-19)
         0.21             (0.231187 -0.209922 -3.48345e-19)             (0.446358 -0.345064 -3.77764e-20)             (0.590898 -0.452941 4.02967e-19)             (0.636641 0.00288826 -5.77481e-22)             (0.985777 0.0155157 4.87452e-21)             (1.25444 0.0274157 -4.85609e-21)             (0.252631 0.213028 2.12813e-19)             (0.446362 0.345069 2.84819e-19)             (0.634068 0.454335 1.16589e-19)
        0.215             (0.227109 -0.205983 -3.46587e-19)             (0.439835 -0.339504 -3.76716e-20)             (0.583714 -0.446828 4.01655e-19)             (0.63056 0.00311693 -5.71659e-22)             (0.977429 0.016013 4.8661e-21)             (1.24581 0.0282438 -4.84964e-21)             (0.248297 0.209128 2.11747e-19)             (0.43984 0.339508 2.83664e-19)             (0.626567 0.448292 1.16166e-19)
         0.22             (0.223161 -0.202169 -3.44891e-19)             (0.433497 -0.334093 -3.75702e-20)             (0.576688 -0.440834 4.00389e-19)             (0.624692 0.00333903 -5.66009e-22)             (0.969342 0.0164983 4.85758e-21)             (1.23739 0.0290552 -4.843e-21)             (0.244102 0.205351 2.1072e-19)             (0.433501 0.334098 2.82546e-19)             (0.61923 0.442367 1.15756e-19)
        0.225             (0.219336 -0.198471 -3.43248e-19)             (0.427334 -0.328827 -3.74713e-20)             (0.569816 -0.434957 3.99155e-19)             (0.619024 0.00355475 -5.60508e-22)             (0.961503 0.0169721 4.84877e-21)             (1.22919 0.02985 -4.836e-21)             (0.240039 0.201691 2.09724e-19)             (0.427338 0.328832 2.81458e-19)             (0.612054 0.436558 1.15357e-19)
         0.23             (0.215628 -0.194885 -3.41684e-19)             (0.421338 -0.323698 -3.73782e-20)             (0.563091 -0.429192 3.9799e-19)             (0.613546 0.00376455 -5.5519e-22)             (0.953901 0.0174349 4.8405e-21)             (1.22118 0.0306292 -4.82945e-21)             (0.2361 0.198141 2.08777e-19)             (0.421343 0.323703 2.80422e-19)             (0.605033 0.430861 1.14977e-19)
        0.235             (0.212031 -0.191405 -3.40165e-19)             (0.415503 -0.318701 -3.72871e-20)             (0.556511 -0.423538 3.96854e-19)             (0.608248 0.00396885 -5.50008e-22)             (0.946525 0.0178874 4.83201e-21)             (1.21337 0.0313936 -4.82261e-21)             (0.232279 0.194697 2.07857e-19)             (0.415508 0.318706 2.79413e-19)             (0.598162 0.425274 1.14607e-19)
         0.24             (0.20854 -0.188026 -3.38692e-19)             (0.409822 -0.313831 -3.71982e-20)             (0.550069 -0.417992 3.95747e-19)             (0.603122 0.0041677 -5.44952e-22)             (0.939364 0.0183296 4.82331e-21)             (1.20574 0.0321429 -4.81549e-21)             (0.228571 0.191353 2.06965e-19)             (0.409826 0.313836 2.78429e-19)             (0.591436 0.419794 1.14245e-19)
        0.245             (0.20515 -0.184744 -3.37267e-19)             (0.404288 -0.309083 -3.71119e-20)             (0.543763 -0.41255 3.94674e-19)             (0.598157 0.00436132 -5.40036e-22)             (0.93241 0.0187621 4.81456e-21)             (1.19829 0.032878 -4.80825e-21)             (0.224971 0.188105 2.06103e-19)             (0.404292 0.309088 2.77474e-19)             (0.584851 0.414419 1.13893e-19)
         0.25             (0.201857 -0.181553 -3.35889e-19)             (0.398895 -0.304451 -3.70282e-20)             (0.537587 -0.407211 3.93634e-19)             (0.593347 0.00454989 -5.35231e-22)             (0.925652 0.019185 4.80588e-21)             (1.19102 0.0335988 -4.80102e-21)             (0.221473 0.184949 2.05268e-19)             (0.3989 0.304456 2.76547e-19)             (0.578403 0.409145 1.13552e-19)
        0.255             (0.198655 -0.178451 -3.34551e-19)             (0.393638 -0.299932 -3.69467e-20)             (0.531538 -0.401972 3.92624e-19)             (0.588684 0.0047337 -5.30597e-22)             (0.919083 0.0195989 4.79693e-21)             (1.18392 0.0343069 -4.79344e-21)             (0.218074 0.181879 2.04459e-19)             (0.393642 0.299937 2.75646e-19)             (0.572087 0.40397 1.13219e-19)
         0.26             (0.195541 -0.175432 -3.33259e-19)             (0.388511 -0.295521 -3.68677e-20)             (0.525612 -0.39683 3.91646e-19)             (0.584162 0.00491282 -5.26035e-22)             (0.912695 0.0200037 4.78821e-21)             (1.17699 0.0350014 -4.78604e-21)             (0.214768 0.178893 2.03677e-19)             (0.388515 0.295525 2.74772e-19)             (0.5659 0.398892 1.12897e-19)
        0.265             (0.192511 -0.172494 -3.32003e-19)             (0.383509 -0.291213 -3.67908e-20)             (0.519806 -0.391782 3.90693e-19)             (0.579772 0.00508742 -5.21584e-22)             (0.90648 0.0203997 4.77943e-21)             (1.17021 0.0356826 -4.77854e-21)             (0.211551 0.175987 2.02917e-19)             (0.383513 0.291218 2.73919e-19)             (0.559838 0.393907 1.12582e-19)
         0.27             (0.189561 -0.169632 -3.30792e-19)             (0.378627 -0.287006 -3.67166e-20)             (0.514116 -0.386827 3.89775e-19)             (0.57551 0.00525775 -5.1725e-22)             (0.90043 0.0207873 4.77082e-21)             (1.16359 0.0363511 -4.77115e-21)             (0.20842 0.173157 2.02185e-19)             (0.378632 0.287011 2.73096e-19)             (0.553897 0.389014 1.12277e-19)
        0.275             (0.186689 -0.166844 -3.29612e-19)             (0.373861 -0.282895 -3.66438e-20)             (0.508537 -0.381961 3.88877e-19)             (0.571369 0.00542395 -5.13012e-22)             (0.894538 0.0211667 4.76212e-21)             (1.15711 0.0370073 -4.76363e-21)             (0.205371 0.170401 2.01471e-19)             (0.373866 0.2829 2.72291e-19)             (0.548073 0.384211 1.11979e-19)
         0.28             (0.18389 -0.164128 -3.28467e-19)             (0.369206 -0.278878 -3.65731e-20)             (0.503068 -0.377184 3.88005e-19)             (0.567344 0.00558613 -5.08876e-22)             (0.888799 0.0215381 4.7534e-21)             (1.15078 0.0376513 -4.75604e-21)             (0.2024 0.167714 2.00779e-19)             (0.369211 0.278882 2.71507e-19)             (0.542364 0.379495 1.11688e-19)
        0.285             (0.181162 -0.161479 -3.27351e-19)             (0.364659 -0.27495 -3.65038e-20)             (0.497705 -0.372491 3.87152e-19)             (0.56343 0.00574437 -5.04829e-22)             (0.883207 0.0219017 4.74464e-21)             (1.14458 0.0382833 -4.74836e-21)             (0.199505 0.165095 2.00105e-19)             (0.364664 0.274955 2.7074e-19)             (0.536765 0.374863 1.11404e-19)
         0.29             (0.178502 -0.158895 -3.26269e-19)             (0.360215 -0.271108 -3.64364e-20)             (0.492445 -0.367882 3.86323e-19)             (0.559622 0.00589883 -5.00875e-22)             (0.877755 0.0222578 4.73597e-21)             (1.13852 0.0389037 -4.74073e-21)             (0.196682 0.162541 1.99451e-19)             (0.36022 0.271113 2.69995e-19)             (0.531274 0.370314 1.11127e-19)
        0.295             (0.175907 -0.156374 -3.25217e-19)             (0.355871 -0.267351 -3.63706e-20)             (0.487285 -0.363354 3.85516e-19)             (0.555916 0.00604977 -4.97016e-22)             (0.872439 0.0226066 4.7273e-21)             (1.1326 0.0395129 -4.73306e-21)             (0.193929 0.160049 1.98815e-19)             (0.355876 0.267356 2.69268e-19)             (0.525887 0.365845 1.10856e-19)
          0.3             (0.173376 -0.153913 -3.24192e-19)             (0.351623 -0.263674 -3.63063e-20)             (0.482222 -0.358906 3.84727e-19)             (0.552307 0.00619724 -4.93235e-22)             (0.867252 0.0229483 4.71865e-21)             (1.12679 0.040111 -4.72538e-21)             (0.191243 0.157617 1.98196e-19)             (0.351628 0.263679 2.68558e-19)             (0.520602 0.361455 1.10592e-19)
        0.305             (0.170905 -0.151511 -3.2319e-19)             (0.347469 -0.260075 -3.62431e-20)             (0.477253 -0.354534 3.83953e-19)             (0.548793 0.0063412 -4.89529e-22)             (0.862192 0.0232829 4.70989e-21)             (1.12111 0.0406981 -4.71754e-21)             (0.188621 0.155243 1.97591e-19)             (0.347474 0.26008 2.67861e-19)             (0.515415 0.357142 1.10332e-19)
         0.31             (0.168492 -0.149165 -3.22231e-19)             (0.343404 -0.256552 -3.61831e-20)             (0.472376 -0.350238 3.83218e-19)             (0.545368 0.00648218 -4.8593e-22)             (0.857251 0.0236113 4.7016e-21)             (1.11555 0.0412752 -4.71015e-21)             (0.186061 0.152924 1.97011e-19)             (0.343409 0.256557 2.67194e-19)             (0.510324 0.352903 1.10083e-19)
        0.315             (0.166135 -0.146872 -3.21284e-19)             (0.339426 -0.253102 -3.61232e-20)             (0.467589 -0.346015 3.82486e-19)             (0.542029 0.00661999 -4.82389e-22)             (0.852427 0.0239332 4.69301e-21)             (1.11011 0.0418421 -4.70241e-21)             (0.183561 0.150659 1.9644e-19)             (0.339431 0.253107 2.66533e-19)             (0.505327 0.348737 1.09836e-19)
         0.32             (0.163832 -0.144632 -3.20361e-19)             (0.335532 -0.249723 -3.60643e-20)             (0.462888 -0.341864 3.81769e-19)             (0.538774 0.00675469 -4.78922e-22)             (0.847716 0.0242486 4.68439e-21)             (1.10477 0.0423991 -4.69462e-21)             (0.181119 0.148445 1.95883e-19)             (0.335537 0.249728 2.65886e-19)             (0.500421 0.344642 1.09594e-19)
        0.325             (0.161582 -0.142442 -3.19461e-19)             (0.331719 -0.246413 -3.60069e-20)             (0.458272 -0.337782 3.81069e-19)             (0.535598 0.00688637 -4.75519e-22)             (0.843112 0.0245578 4.67584e-21)             (1.09954 0.042946 -4.68687e-21)             (0.178732 0.146281 1.9534e-19)             (0.331724 0.246418 2.65253e-19)             (0.495603 0.340616 1.09356e-19)
         0.33             (0.159382 -0.1403 -3.18582e-19)             (0.327985 -0.243169 -3.59504e-20)             (0.453738 -0.333769 3.80384e-19)             (0.5325 0.0070151 -4.72181e-22)             (0.838613 0.0248608 4.6673e-21)             (1.09442 0.0434831 -4.6791e-21)             (0.176398 0.144165 1.9481e-19)             (0.32799 0.243174 2.64633e-19)             (0.490871 0.336658 1.09124e-19)
        0.335             (0.15723 -0.138205 -3.17724e-19)             (0.324327 -0.23999 -3.58952e-20)             (0.449285 -0.329823 3.79713e-19)             (0.529475 0.00714097 -4.68911e-22)             (0.834215 0.0251578 4.65878e-21)             (1.0894 0.0440106 -4.67132e-21)             (0.174117 0.142096 1.94292e-19)             (0.324332 0.239994 2.64026e-19)             (0.486223 0.332766 1.08896e-19)
         0.34             (0.155126 -0.136156 -3.16905e-19)             (0.320743 -0.236872 -3.58432e-20)             (0.444909 -0.325941 3.79079e-19)             (0.52652 0.00726432 -4.65725e-22)             (0.829913 0.0254493 4.65082e-21)             (1.08448 0.0445293 -4.66408e-21)             (0.171885 0.140072 1.93798e-19)             (0.320748 0.236877 2.63448e-19)             (0.481656 0.328938 1.08679e-19)
        0.345             (0.153067 -0.13415 -3.16091e-19)             (0.31723 -0.233816 -3.57906e-20)             (0.440609 -0.322123 3.78442e-19)             (0.523635 0.00738503 -4.62581e-22)             (0.825705 0.0257352 4.64247e-21)             (1.07966 0.0450389 -4.65643e-21)             (0.169702 0.138091 1.93308e-19)             (0.317235 0.233821 2.6287e-19)             (0.477168 0.325174 1.08461e-19)
         0.35             (0.151052 -0.132187 -3.15291e-19)             (0.313787 -0.230818 -3.57383e-20)             (0.436384 -0.318367 3.77811e-19)             (0.520815 0.0075031 -4.59491e-22)             (0.821588 0.0260156 4.63403e-21)             (1.07492 0.0455395 -4.64865e-21)             (0.167565 0.136152 1.92825e-19)             (0.313792 0.230823 2.62299e-19)             (0.472759 0.32147 1.08246e-19)