2 	-3.93556 	-4.85723e-18 	0.0953943
2 	-3.80884 	-5.55112e-18 	0.0951582
2 	-3.68632 	-6.59195e-18 	0.0947103
2 	-3.56788 	-4.85723e-18 	0.0940658
2 	-3.45338 	-6.245e-18 	0.0932438
2 	-3.34268 	-4.16334e-18 	0.0922574
2 	-3.23566 	1.04083e-18 	0.0911202
2 	-3.13221 	1.04083e-18 	0.0898441
2 	-3.03219 	-3.46945e-19 	0.0884403
2 	-2.93549 	-7.70372e-34 	0.086919
2 	-2.84202 	1.73472e-18 	0.0852902
2 	-2.75164 	1.73472e-18 	0.0835634
2 	-2.66428 	3.46945e-18 	0.0817478
2 	-2.57982 	5.20417e-18 	0.0798523
2 	-2.49816 	3.46945e-18 	0.0778856
2 	-2.41922 	5.20417e-18 	0.0758562
2 	-2.34291 	5.20417e-18 	0.0737723
2 	-2.26913 	1.73472e-18 	0.071642
2 	-2.19781 	-1.73472e-18 	0.0694732
2 	-2.12886 	-5.20417e-18 	0.0672732
2 	-2.0622 	-6.93889e-18 	0.0650494
2 	-1.99775 	-6.93889e-18 	0.0628086
2 	-1.93545 	-6.93889e-18 	0.0605572
2 	-1.87522 	-6.93889e-18 	0.0583015
2 	-1.81699 	-5.20417e-18 	0.0560475
2 	-1.7607 	-3.46945e-18 	0.0538007
2 	-1.70628 	-5.20417e-18 	0.0515666
2 	-1.65367 	-6.93889e-18 	0.0493502
2 	-1.60281 	-6.93889e-18 	0.0471564
2 	-1.55363 	-5.55112e-18 	0.0449898
2 	-1.5061 	-4.16334e-18 	0.0428547
2 	-1.46014 	-4.16334e-18 	0.0407558
2 	-1.41571 	-2.42861e-18 	0.0386979
2 	-1.37276 	2.77556e-18 	0.0366867
2 	-1.33124 	6.245e-18 	0.0347284
2 	-1.2911 	2.77556e-18 	0.0328309
2 	-1.25229 	-6.93889e-19 	0.0310026
2 	-1.21477 	-6.93889e-19 	0.0292533
2 	-1.1785 	-2.42861e-18 	0.0275925
2 	-1.14344 	-5.55112e-18 	0.0260245
2 	-1.10954 	-6.93889e-18 	0.0245523
2 	-1.07677 	-6.93889e-18 	0.0232102
2 	-1.04437 	-8.45479e-18 	0.0220395
2 	-1.01665 	-9.49562e-18 	0.0206271
2 	-1.00013 	-9.02056e-18 	0.0207317
2 	-0.978299 	-8.67362e-18 	0.0194889
2 	-0.944575 	-6.95186e-18 	0.01842
2 	-0.913284 	-5.21714e-18 	0.0174767
2 	-0.896078 	-4.85723e-18 	0.0173612
2 	-0.875754 	-4.85723e-18 	0.0164852
2 	-0.840661 	-4.77875e-18 	0.0157366
2 	-0.805119 	-5.84201e-18 	0.0151011
2 	-0.786234 	-5.99735e-18 	0.0145643
2 	-0.768132 	-5.97493e-18 	0.0142751
2 	-0.732715 	-6.99892e-18 	0.0138002
2 	-0.695868 	-6.49111e-18 	0.0134046
2 	-0.668107 	-3.99246e-18 	0.0130764
2 	-0.649373 	-6.83877e-19 	0.012739
2 	-0.620939 	-1.04083e-18 	0.0124621
2 	-0.582883 	-4.44641e-18 	0.0122384
2 	-0.544452 	-4.21847e-18 	0.0120602
2 	-0.517813 	-2.02917e-18 	0.0119212
2 	-0.498333 	-5.03266e-18 	0.0115861
2 	-0.466539 	-9.71445e-18 	0.0114882
2 	-0.427095 	-1.18258e-17 	0.0114199
2 	-0.387355 	-1.49356e-17 	0.0113798
2 	-0.347342 	-2.15977e-17 	0.0113597
2 	-0.317598 	-2.60917e-17 	0.0113558
2 	-0.297408 	-2.46041e-17 	0.0110793
2 	-0.266597 	-2.60209e-17 	0.0111011
2 	-0.225919 	-2.46331e-17 	0.011131
2 	-0.185073 	-2.01228e-17 	0.0111648
2 	-0.14409 	-1.72075e-17 	0.0111991
2 	-0.102999 	-1.43102e-17 	0.011231
2 	-0.0618307 	-1.25922e-17 	0.0112579
2 	-0.0206154 	-1.43108e-17 	0.0112784
2 	0.0206154 	-1.73465e-17 	0.0112915
2 	0.0618307 	-1.58448e-17 	0.0112973
2 	0.102999 	-1.37193e-17 	0.0112964
2 	0.14409 	-1.01547e-17 	0.0112905
2 	0.185073 	-5.20417e-18 	0.0112817
2 	0.225919 	-1.38778e-18 	0.0112731
2 	0.266597 	-1.38778e-18 	0.011268
2 	0.297408 	-6.57824e-19 	0.0112703
2 	0.317598 	6.30105e-19 	0.0115422
2 	0.347342 	1.12717e-18 	0.011569
2 	0.387355 	1.63105e-18 	0.0116112
2 	0.427095 	4.22043e-18 	0.011672
2 	0.466539 	5.89806e-18 	0.0117603
2 	0.498333 	3.38468e-18 	0.0118764
2 	0.517813 	3.26567e-18 	0.0122036
2 	0.544452 	4.28168e-18 	0.0123589
2 	0.582883 	7.17624e-18 	0.0125514
2 	0.620939 	9.71445e-18 	0.0127871
2 	0.649373 	9.46591e-18 	0.0130735
2 	0.668107 	9.97373e-18 	0.0134008
2 	0.695868 	1.27643e-17 	0.0137363
2 	0.732715 	1.43382e-17 	0.0141364
2 	0.768132 	1.25669e-17 	0.0146132
2 	0.786234 	1.25445e-17 	0.0148902
2 	0.805119 	1.37604e-17 	0.015427
2 	0.840661 	1.8987e-17 	0.0160602
2 	0.875754 	2.25514e-17 	0.0168042
2 	0.896078 	2.05297e-17 	0.0176738
2 	0.913284 	1.82616e-17 	0.0177765
2 	0.944575 	1.75077e-17 	0.018713
2 	0.978299 	1.83881e-17 	0.019774
2 	1.00013 	1.82953e-17 	0.0210079
2 	1.01665 	1.81672e-17 	0.0208898
2 	1.04437 	1.37497e-17 	0.0222927
2 	1.07677 	9.71445e-18 	0.0234557
2 	1.10954 	1.11022e-17 	0.0247869
2 	1.14344 	1.04083e-17 	0.0262463
2 	1.1785 	6.59195e-18 	0.0278016
2 	1.21477 	4.85723e-18 	0.0294504
2 	1.25229 	7.97973e-18 	0.0311878
2 	1.2911 	1.11022e-17 	0.0330048
2 	1.33124 	7.63278e-18 	0.0348916
2 	1.37276 	4.16334e-18 	0.0368396
2 	1.41571 	4.51028e-18 	0.0388413
2 	1.46014 	4.85723e-18 	0.0408902
2 	1.5061 	3.1225e-18 	0.0429807
2 	1.55363 	4.85723e-18 	0.0451079
2 	1.60281 	8.67362e-18 	0.0472673
2 	1.65367 	9.02056e-18 	0.0494544
2 	1.70628 	1.11022e-17 	0.0516645
2 	1.7607 	1.14492e-17 	0.053893
2 	1.81699 	1.31839e-17 	0.0561345
2 	1.87522 	1.66533e-17 	0.0583838
2 	1.93545 	1.8735e-17 	0.0606351
2 	1.99775 	1.9082e-17 	0.0628825
2 	2.0622 	1.76942e-17 	0.0651197
2 	2.12886 	1.45717e-17 	0.0673402
2 	2.19781 	9.02056e-18 	0.0695371
2 	2.26913 	1.00614e-17 	0.0717033
2 	2.34291 	1.31839e-17 	0.073831
2 	2.41922 	1.70003e-17 	0.0759127
2 	2.49816 	2.22045e-17 	0.0779401
2 	2.57982 	2.18575e-17 	0.079905
2 	2.66428 	2.18575e-17 	0.0817989
2 	2.75164 	2.32453e-17 	0.083613
2 	2.84202 	2.46331e-17 	0.0853384
2 	2.93549 	2.63678e-17 	0.086966
2 	3.03219 	2.46331e-17 	0.0884861
2 	3.13221 	2.28983e-17 	0.0898891
2 	3.23566 	2.28983e-17 	0.0911643
2 	3.34268 	2.74086e-17 	0.0923007
2 	3.45338 	3.36536e-17 	0.0932865
2 	3.56788 	3.67761e-17 	0.094108
2 	3.68632 	3.98986e-17 	0.0947521
2 	3.80884 	3.67761e-17 	0.0951997
2 	3.93556 	3.23684e-17 	0.0954357
