/*--------------------------------*- C++ -*----------------------------------*\
  =========                 |
  \\      /  F ield         | OpenFOAM: The Open Source CFD Toolbox
   \\    /   O peration     | Website:  https://openfoam.org
    \\  /    A nd           | Version:  7
     \\/     M anipulation  |
\*---------------------------------------------------------------------------*/
FoamFile
{
    version     2.0;
    format      ascii;
    class       volScalarField;
    location    "20";
    object      p;
}
// * * * * * * * * * * * * * * * * * * * * * * * * * * * * * * * * * * * * * //

dimensions      [0 2 -2 0 0 0 0];

internalField   nonuniform List<scalar> 
12772
(
-0.253221
-0.255217
-0.256154
-0.256913
-0.257571
-0.258152
-0.258681
-0.259164
-0.259598
-0.259996
-0.253425
-0.255398
-0.256321
-0.257068
-0.257712
-0.25828
-0.258795
-0.259262
-0.259678
-0.260043
-0.253827
-0.255752
-0.256649
-0.25737
-0.257989
-0.25853
-0.259016
-0.259452
-0.259829
-0.260125
-0.254419
-0.256276
-0.257134
-0.257816
-0.258395
-0.258895
-0.259335
-0.259723
-0.260042
-0.260226
-0.255193
-0.256961
-0.257767
-0.258397
-0.258922
-0.259366
-0.259744
-0.260063
-0.260306
-0.260326
-0.256136
-0.257798
-0.258539
-0.259103
-0.25956
-0.259931
-0.260228
-0.260458
-0.260609
-0.260396
-0.257236
-0.258777
-0.259441
-0.259925
-0.260296
-0.260579
-0.260774
-0.260891
-0.260938
-0.260396
-0.258479
-0.259886
-0.260461
-0.260849
-0.261119
-0.261295
-0.261369
-0.261343
-0.261285
-0.260274
-0.259852
-0.261116
-0.261588
-0.261866
-0.262018
-0.262069
-0.261999
-0.261797
-0.261652
-0.259949
-0.261345
-0.262457
-0.262815
-0.262965
-0.26298
-0.262889
-0.262655
-0.262237
-0.262065
-0.259327
-0.262949
-0.263902
-0.264132
-0.264137
-0.263997
-0.263745
-0.26333
-0.262649
-0.262535
-0.258569
-0.264659
-0.265447
-0.265533
-0.265376
-0.265061
-0.26463
-0.264019
-0.263034
-0.262736
-0.257821
-0.266473
-0.267091
-0.267018
-0.266677
-0.266167
-0.265538
-0.26472
-0.263505
-0.262887
-0.256764
-0.268397
-0.268836
-0.268585
-0.268038
-0.26731
-0.266467
-0.26542
-0.263974
-0.26309
-0.25542
-0.270441
-0.270691
-0.270241
-0.26946
-0.268491
-0.267414
-0.266127
-0.264447
-0.263304
-0.253907
-0.272621
-0.272669
-0.271993
-0.27095
-0.269712
-0.26838
-0.266837
-0.264956
-0.263451
-0.252407
-0.274963
-0.274788
-0.273856
-0.27252
-0.270981
-0.269367
-0.267544
-0.265533
-0.263397
-0.251102
-0.277497
-0.277072
-0.275853
-0.274187
-0.272312
-0.270386
-0.268248
-0.266211
-0.262936
-0.250101
-0.280263
-0.279548
-0.278013
-0.275976
-0.273729
-0.271459
-0.268966
-0.267018
-0.261972
-0.250179
-0.28331
-0.282256
-0.280365
-0.27792
-0.275264
-0.272619
-0.269737
-0.267896
-0.260893
-0.254605
-0.286689
-0.285239
-0.28295
-0.28006
-0.276961
-0.273908
-0.270605
-0.268643
-0.260363
-0.265606
-0.290451
-0.288545
-0.285813
-0.282443
-0.27887
-0.275373
-0.271624
-0.269145
-0.260598
-0.264578
-0.294658
-0.29222
-0.289001
-0.285119
-0.281044
-0.277063
-0.27283
-0.269519
-0.261041
-0.261705
-0.299369
-0.296313
-0.292564
-0.288141
-0.283539
-0.279021
-0.274228
-0.269922
-0.261327
-0.258896
-0.304637
-0.300872
-0.296553
-0.29156
-0.286399
-0.28128
-0.275811
-0.270385
-0.261356
-0.256043
-0.310513
-0.305943
-0.301015
-0.295424
-0.289661
-0.283855
-0.277563
-0.270885
-0.261054
-0.253248
-0.317037
-0.311566
-0.305994
-0.299774
-0.293348
-0.286742
-0.279455
-0.271362
-0.260406
-0.250436
-0.324241
-0.317776
-0.311528
-0.30464
-0.297465
-0.289918
-0.281429
-0.271734
-0.259403
-0.247538
-0.33214
-0.324599
-0.317648
-0.310038
-0.302
-0.293335
-0.283401
-0.271913
-0.25804
-0.244478
-0.340737
-0.332047
-0.324367
-0.315964
-0.306919
-0.296912
-0.285262
-0.271811
-0.256304
-0.241195
-0.350012
-0.340117
-0.33168
-0.322387
-0.312154
-0.300534
-0.286893
-0.271349
-0.254178
-0.237631
-0.359923
-0.348785
-0.339554
-0.32925
-0.317602
-0.304055
-0.288176
-0.270457
-0.251635
-0.233735
-0.370398
-0.357999
-0.347927
-0.336457
-0.323115
-0.307313
-0.288993
-0.269068
-0.248641
-0.229457
-0.381333
-0.367676
-0.356697
-0.343873
-0.328509
-0.310138
-0.289234
-0.267119
-0.245154
-0.224749
-0.39259
-0.377695
-0.365726
-0.351314
-0.333571
-0.312361
-0.288796
-0.264546
-0.241127
-0.21956
-0.403992
-0.387896
-0.374831
-0.358557
-0.338073
-0.313819
-0.287579
-0.261286
-0.236505
-0.213841
-0.415325
-0.398081
-0.38379
-0.36534
-0.341784
-0.314357
-0.285488
-0.257272
-0.231234
-0.207545
-0.426338
-0.408011
-0.392338
-0.371377
-0.344477
-0.31383
-0.282432
-0.252437
-0.225253
-0.200624
-0.436747
-0.417412
-0.400178
-0.376373
-0.345936
-0.312104
-0.278322
-0.246711
-0.218506
-0.193038
-0.44624
-0.425982
-0.406985
-0.380036
-0.345962
-0.309053
-0.273074
-0.240029
-0.210934
-0.184748
-0.454486
-0.433395
-0.41242
-0.382086
-0.344372
-0.304565
-0.266608
-0.232325
-0.202485
-0.175717
-0.461143
-0.439312
-0.416147
-0.382265
-0.341006
-0.298536
-0.25885
-0.223538
-0.193111
-0.165916
-0.465865
-0.443389
-0.417842
-0.380343
-0.335723
-0.290878
-0.249733
-0.213614
-0.182776
-0.155329
-0.468318
-0.445288
-0.417207
-0.376122
-0.328406
-0.281512
-0.239194
-0.202501
-0.171446
-0.143943
-0.468185
-0.444691
-0.41398
-0.369438
-0.318962
-0.27038
-0.227187
-0.190154
-0.159081
-0.131697
-0.465176
-0.441306
-0.407939
-0.360164
-0.307324
-0.257438
-0.213678
-0.176544
-0.14562
-0.118409
-0.459039
-0.434879
-0.398914
-0.348214
-0.29345
-0.242662
-0.198656
-0.161667
-0.131025
-0.103819
-0.449563
-0.425207
-0.386779
-0.333536
-0.277324
-0.226046
-0.182115
-0.145538
-0.11536
-0.0879785
-0.436588
-0.41214
-0.371453
-0.316117
-0.258953
-0.207594
-0.16406
-0.128177
-0.0986888
-0.0718082
-0.420006
-0.395583
-0.352908
-0.295978
-0.238368
-0.187332
-0.144536
-0.109668
-0.080889
-0.0551374
-0.399766
-0.375497
-0.331158
-0.273179
-0.215628
-0.16532
-0.123667
-0.0899751
-0.0621216
-0.0377781
-0.375869
-0.351899
-0.306274
-0.247815
-0.190818
-0.141681
-0.101441
-0.0691609
-0.0424874
-0.0197187
-0.348374
-0.324872
-0.278401
-0.219985
-0.164029
-0.116468
-0.0779404
-0.0473096
-0.0220579
-0.00104174
-0.317391
-0.294564
-0.247755
-0.189736
-0.135377
-0.0897789
-0.053263
-0.024511
-0.00090414
0.0181451
-0.283092
-0.261193
-0.214445
-0.157206
-0.105012
-0.0617453
-0.0275237
-0.000860797
0.0208999
0.0377582
-0.245705
-0.225026
-0.178116
-0.122961
-0.0731396
-0.0325142
-0.000848552
0.0235397
0.0432695
0.057694
-0.205445
-0.186266
-0.139396
-0.0869666
-0.0399526
-0.00224729
0.0266384
0.0485958
0.0660518
0.077566
-0.16253
-0.14464
-0.0992867
-0.0494846
-0.00563536
0.0288948
0.0548348
0.074237
0.0889674
0.0965215
-0.117359
-0.100975
-0.0576824
-0.0107934
0.0296053
0.0607516
0.0836498
0.100393
0.111751
0.114105
-0.0703835
-0.055563
-0.0147683
0.0288379
0.0655417
0.0931452
0.112936
0.126868
0.134445
0.132354
-0.0218898
-0.00883994
0.0291488
0.0691352
0.101936
0.125872
0.142446
0.153271
0.157055
0.15608
0.0277129
0.0387951
0.0737212
0.109813
0.138546
0.15871
0.171915
0.179429
0.180205
0.179923
0.0779952
0.086949
0.11859
0.150577
0.17512
0.191437
0.201174
0.205407
0.203609
0.202457
0.128524
0.135223
0.163394
0.191127
0.211403
0.223824
0.230046
0.231074
0.226842
0.224059
0.178864
0.183213
0.207776
0.231163
0.247141
0.255656
0.258366
0.256258
0.249582
0.244742
0.228582
0.230519
0.251383
0.270386
0.28208
0.286718
0.285955
0.280781
0.271655
0.264559
0.277247
0.276743
0.293868
0.308505
0.315974
0.3168
0.312636
0.304475
0.292914
0.283479
0.32444
0.321498
0.334895
0.345236
0.34858
0.345699
0.338233
0.327182
0.313238
0.301448
0.369756
0.36441
0.374142
0.380305
0.379667
0.373217
0.362579
0.348756
0.33251
0.318393
0.412806
0.405123
0.411301
0.413452
0.409015
0.399166
0.385512
0.369059
0.35062
0.334238
0.453219
0.443297
0.44608
0.444431
0.436413
0.423367
0.406879
0.387962
0.367459
0.348907
0.490652
0.478618
0.478208
0.473012
0.461667
0.445655
0.426539
0.405344
0.382926
0.362325
0.524783
0.510794
0.507435
0.498984
0.484596
0.465876
0.444362
0.421092
0.396926
0.374425
0.555324
0.539561
0.533534
0.522154
0.505038
0.48389
0.460229
0.435105
0.409373
0.385146
0.582014
0.564682
0.556304
0.542352
0.522847
0.499574
0.474036
0.447293
0.42019
0.394432
0.604626
0.585952
0.575567
0.559428
0.537896
0.512821
0.48569
0.457576
0.42931
0.40224
0.622968
0.603195
0.591173
0.573256
0.550078
0.52354
0.495116
0.46589
0.436676
0.408528
0.636882
0.616271
0.603002
0.583733
0.559306
0.531657
0.50225
0.47218
0.442243
0.413265
0.646249
0.62507
0.61096
0.590781
0.565512
0.537114
0.507047
0.476407
0.445983
0.416444
0.650988
0.629519
0.614983
0.594343
0.568649
0.539873
0.509471
0.478544
0.447882
0.418077
0.651055
0.62958
0.615038
0.594392
0.568691
0.539909
0.509501
0.47857
0.447906
0.418112
0.646449
0.625249
0.611123
0.590924
0.565635
0.537218
0.50713
0.476473
0.446035
0.416487
0.637205
0.616561
0.603265
0.583963
0.559501
0.531816
0.502375
0.472271
0.442305
0.413299
0.623401
0.603585
0.591524
0.57356
0.550332
0.523743
0.495269
0.465996
0.436739
0.408552
0.605153
0.586425
0.57599
0.559791
0.538195
0.513054
0.48586
0.457688
0.429369
0.402254
0.582614
0.565222
0.556784
0.542759
0.523177
0.499826
0.474213
0.447404
0.420244
0.394438
0.555977
0.540149
0.534056
0.522592
0.505387
0.484151
0.460409
0.435214
0.409423
0.385146
0.525469
0.511414
0.507982
0.499439
0.484954
0.46614
0.444541
0.421198
0.396973
0.374423
0.491351
0.479252
0.478767
0.473474
0.462026
0.445918
0.426715
0.405448
0.382972
0.362323
0.453914
0.44393
0.446638
0.44489
0.436768
0.423626
0.407052
0.388066
0.367507
0.348906
0.413482
0.405742
0.411848
0.413902
0.409362
0.399418
0.385682
0.369163
0.350671
0.334241
0.370402
0.365005
0.37467
0.380739
0.380003
0.373462
0.362747
0.348862
0.332566
0.318399
0.325045
0.32206
0.335397
0.345651
0.348902
0.345937
0.3384
0.327291
0.313299
0.301457
0.277804
0.277265
0.294339
0.308898
0.316281
0.317031
0.312801
0.304588
0.292981
0.283491
0.229087
0.230998
0.25182
0.270755
0.282373
0.286941
0.286119
0.280899
0.271728
0.264572
0.179315
0.183646
0.208177
0.231506
0.247419
0.255872
0.258529
0.25638
0.249665
0.244756
0.12892
0.135608
0.163758
0.191444
0.211666
0.224034
0.23021
0.231202
0.226937
0.224078
0.0783362
0.087287
0.118917
0.150869
0.175367
0.19164
0.201337
0.205541
0.203723
0.202493
0.0280015
0.039087
0.0740115
0.110079
0.138778
0.158908
0.172079
0.179567
0.180345
0.180008
-0.0216507
-0.00859225
0.0294041
0.069377
0.102154
0.126064
0.142611
0.153411
0.157217
0.156284
-0.0701903
-0.0553571
-0.0145463
0.0290561
0.0657454
0.0933318
0.113104
0.127017
0.134625
0.132703
-0.117208
-0.100808
-0.0574913
-0.0105978
0.0297949
0.0609318
0.0838195
0.10055
0.111929
0.114416
-0.162416
-0.144509
-0.0991242
-0.0493107
-0.00545992
0.0290671
0.0550021
0.0743944
0.0891295
0.09675
-0.205365
-0.186168
-0.139259
-0.0868139
-0.0397914
-0.00208458
0.0267991
0.048748
0.0661988
0.0777431
-0.245653
-0.224953
-0.178008
-0.122829
-0.0729925
-0.0323619
-0.000696418
0.0236846
0.0434064
0.0578469
-0.283065
-0.261144
-0.21436
-0.157093
-0.104879
-0.0616036
-0.0273806
-0.000723265
0.0210293
0.0378961
-0.317386
-0.294536
-0.247691
-0.189638
-0.135256
-0.0896478
-0.0531287
-0.0243807
-0.000781636
0.0182708
-0.348387
-0.324862
-0.278354
-0.219902
-0.163921
-0.116347
-0.0778147
-0.0471864
-0.0219418
-0.000925355
-0.375896
-0.351904
-0.306243
-0.247746
-0.190722
-0.14157
-0.101324
-0.0690446
-0.042377
-0.0196089
-0.399804
-0.375513
-0.33114
-0.273123
-0.215542
-0.165218
-0.123558
-0.089865
-0.062016
-0.0376729
-0.420052
-0.395609
-0.3529
-0.295933
-0.238292
-0.187238
-0.144433
-0.109563
-0.0807877
-0.0550358
-0.436639
-0.412172
-0.371454
-0.316081
-0.258886
-0.207508
-0.163964
-0.128077
-0.0985911
-0.0717094
-0.449617
-0.425243
-0.386786
-0.333508
-0.277265
-0.225967
-0.182025
-0.145444
-0.115266
-0.0878826
-0.459094
-0.434918
-0.398927
-0.348192
-0.293398
-0.24259
-0.198571
-0.161577
-0.130934
-0.103726
-0.46523
-0.441344
-0.407954
-0.360148
-0.307278
-0.257371
-0.213599
-0.176457
-0.145531
-0.118318
-0.468237
-0.444728
-0.413996
-0.369425
-0.318921
-0.270317
-0.227111
-0.190071
-0.158995
-0.131609
-0.468366
-0.445323
-0.417223
-0.376112
-0.328368
-0.281454
-0.239122
-0.202421
-0.171362
-0.143857
-0.465908
-0.44342
-0.417857
-0.380334
-0.335688
-0.290823
-0.249664
-0.213537
-0.182694
-0.155244
-0.46118
-0.439338
-0.41616
-0.382257
-0.340974
-0.298485
-0.258785
-0.223464
-0.193031
-0.165833
-0.454517
-0.433417
-0.412429
-0.382077
-0.344342
-0.304516
-0.266545
-0.232252
-0.202406
-0.175635
-0.446264
-0.425998
-0.40699
-0.380026
-0.345932
-0.309006
-0.273014
-0.239959
-0.210857
-0.184667
-0.436765
-0.417423
-0.40018
-0.376361
-0.345907
-0.312059
-0.278264
-0.246643
-0.21843
-0.192959
-0.42635
-0.408016
-0.392336
-0.371363
-0.344448
-0.313786
-0.282375
-0.25237
-0.225179
-0.200546
-0.415331
-0.398081
-0.383783
-0.365323
-0.341755
-0.314314
-0.285433
-0.257207
-0.231161
-0.207467
-0.403992
-0.387891
-0.37482
-0.358538
-0.338044
-0.313777
-0.287525
-0.261222
-0.236434
-0.213764
-0.392584
-0.377684
-0.365711
-0.351293
-0.333541
-0.312319
-0.288743
-0.264484
-0.241057
-0.219483
-0.381323
-0.367661
-0.356679
-0.343849
-0.328478
-0.310097
-0.289183
-0.267058
-0.245085
-0.224673
-0.370383
-0.357981
-0.347905
-0.336431
-0.323082
-0.307272
-0.288943
-0.269008
-0.248573
-0.229382
-0.359904
-0.348764
-0.33953
-0.329222
-0.317568
-0.304014
-0.288127
-0.270399
-0.251568
-0.23366
-0.34999
-0.340093
-0.331653
-0.322358
-0.31212
-0.300494
-0.286845
-0.271292
-0.254112
-0.237556
-0.340712
-0.33202
-0.324338
-0.315932
-0.306884
-0.296872
-0.285215
-0.271755
-0.256239
-0.241121
-0.332113
-0.32457
-0.317618
-0.310006
-0.301965
-0.293296
-0.283355
-0.271858
-0.257976
-0.244404
-0.324211
-0.317746
-0.311497
-0.304607
-0.29743
-0.289879
-0.281385
-0.271681
-0.25934
-0.247464
-0.317006
-0.311535
-0.305961
-0.29974
-0.293313
-0.286703
-0.279411
-0.27131
-0.260344
-0.250363
-0.310481
-0.30591
-0.300981
-0.29539
-0.289626
-0.283817
-0.27752
-0.270835
-0.260993
-0.253175
-0.304603
-0.300838
-0.296519
-0.291526
-0.286364
-0.281243
-0.275769
-0.270336
-0.261296
-0.25597
-0.299333
-0.296278
-0.29253
-0.288106
-0.283504
-0.278984
-0.274188
-0.269874
-0.261268
-0.258823
-0.294621
-0.292184
-0.288965
-0.285084
-0.281009
-0.277027
-0.27279
-0.269472
-0.260981
-0.261631
-0.290413
-0.288508
-0.285776
-0.282407
-0.278834
-0.275337
-0.271584
-0.269099
-0.260537
-0.264503
-0.286649
-0.285201
-0.282913
-0.280024
-0.276925
-0.273872
-0.270565
-0.268596
-0.260302
-0.26553
-0.283269
-0.282217
-0.280327
-0.277883
-0.275228
-0.272582
-0.269696
-0.267849
-0.260831
-0.254525
-0.28022
-0.279507
-0.277974
-0.275938
-0.273691
-0.271421
-0.268924
-0.26697
-0.26191
-0.250096
-0.277453
-0.27703
-0.275813
-0.274148
-0.272273
-0.270346
-0.268204
-0.266161
-0.262873
-0.250016
-0.274917
-0.274745
-0.273815
-0.27248
-0.270941
-0.269326
-0.267499
-0.265481
-0.263334
-0.251016
-0.272575
-0.272625
-0.271951
-0.270909
-0.269671
-0.268338
-0.266791
-0.264903
-0.263386
-0.25232
-0.270393
-0.270647
-0.270198
-0.269419
-0.268449
-0.267371
-0.266079
-0.264392
-0.263239
-0.25382
-0.268349
-0.268792
-0.268542
-0.267995
-0.267268
-0.266422
-0.265372
-0.263918
-0.263024
-0.255333
-0.266425
-0.267047
-0.266975
-0.266635
-0.266124
-0.265493
-0.264671
-0.263447
-0.262821
-0.256677
-0.264611
-0.265404
-0.265491
-0.265335
-0.265019
-0.264585
-0.26397
-0.262975
-0.262674
-0.257734
-0.262903
-0.26386
-0.264091
-0.264097
-0.263956
-0.263701
-0.263281
-0.262593
-0.262475
-0.258483
-0.261301
-0.262417
-0.262775
-0.262926
-0.26294
-0.262846
-0.262608
-0.262183
-0.262003
-0.25925
-0.259811
-0.261078
-0.261551
-0.261829
-0.26198
-0.262029
-0.261954
-0.261745
-0.261591
-0.259876
-0.258441
-0.259851
-0.260426
-0.260815
-0.261084
-0.261258
-0.261327
-0.261295
-0.261229
-0.260206
-0.257201
-0.258745
-0.25941
-0.259894
-0.260264
-0.260545
-0.260736
-0.260848
-0.260887
-0.260334
-0.256106
-0.257771
-0.258512
-0.259076
-0.259532
-0.259902
-0.260195
-0.26042
-0.260564
-0.260341
-0.255167
-0.256938
-0.257744
-0.258374
-0.258898
-0.259341
-0.259716
-0.260031
-0.260268
-0.26028
-0.254399
-0.256257
-0.257115
-0.257798
-0.258376
-0.258875
-0.259313
-0.259697
-0.260012
-0.26019
-0.253812
-0.255739
-0.256636
-0.257357
-0.257975
-0.258516
-0.258999
-0.259433
-0.259807
-0.260098
-0.253416
-0.255389
-0.256313
-0.25706
-0.257704
-0.258271
-0.258785
-0.259251
-0.259664
-0.260027
-0.253218
-0.255215
-0.256151
-0.256911
-0.257568
-0.258149
-0.258678
-0.25916
-0.259593
-0.259991
-0.260484
-0.260838
-0.26121
-0.2616
-0.262009
-0.262442
-0.262901
-0.263388
-0.263906
-0.264458
-0.26505
-0.265688
-0.266381
-0.267138
-0.267968
-0.268879
-0.269872
-0.27094
-0.27206
-0.273185
-0.274231
-0.275071
-0.275515
-0.275306
-0.274101
-0.271474
-0.266892
-0.259898
-0.249902
-0.236618
-0.219541
-0.199193
-0.175181
-0.149409
-0.121579
-0.0940077
-0.0685036
-0.0423162
-0.0267375
-0.00396341
-0.00446357
0.0133362
-0.260574
-0.260911
-0.261276
-0.261663
-0.262069
-0.2625
-0.262957
-0.263443
-0.26396
-0.264511
-0.265102
-0.265738
-0.266429
-0.267184
-0.268012
-0.26892
-0.269912
-0.27098
-0.2721
-0.273227
-0.274278
-0.275126
-0.275581
-0.275387
-0.274202
-0.271597
-0.267035
-0.260078
-0.250111
-0.236858
-0.219802
-0.199476
-0.175468
-0.149705
-0.12186
-0.0942875
-0.0687717
-0.0425505
-0.0269541
-0.00416836
-0.00461957
0.0131742
-0.260741
-0.261045
-0.261396
-0.261776
-0.262175
-0.262602
-0.263055
-0.263537
-0.264051
-0.264598
-0.265185
-0.265817
-0.266504
-0.267254
-0.268079
-0.268985
-0.269977
-0.271046
-0.272173
-0.27331
-0.274378
-0.275248
-0.275735
-0.275579
-0.274441
-0.271888
-0.26739
-0.260492
-0.25058
-0.237381
-0.220358
-0.200062
-0.17605
-0.150291
-0.122408
-0.0948208
-0.0692811
-0.0429813
-0.0273564
-0.0045499
-0.00490403
0.0128668
-0.260977
-0.261232
-0.261561
-0.26193
-0.262321
-0.26274
-0.263187
-0.263664
-0.264172
-0.264713
-0.265293
-0.265919
-0.266599
-0.267343
-0.268163
-0.269066
-0.270058
-0.271132
-0.272269
-0.273424
-0.274517
-0.275425
-0.275959
-0.275864
-0.274796
-0.272321
-0.267917
-0.261109
-0.251276
-0.238155
-0.221177
-0.200923
-0.176902
-0.151141
-0.123204
-0.0955885
-0.0699526
-0.0436592
-0.0279361
-0.00510055
-0.00530476
0.0124239
-0.261267
-0.261458
-0.26176
-0.262116
-0.262495
-0.262904
-0.263344
-0.263813
-0.264313
-0.264847
-0.265418
-0.266035
-0.266706
-0.267442
-0.268254
-0.269154
-0.270145
-0.271225
-0.272374
-0.273552
-0.274679
-0.275635
-0.276231
-0.276213
-0.275237
-0.272863
-0.268578
-0.261886
-0.252156
-0.239136
-0.222216
-0.202016
-0.177985
-0.152223
-0.124223
-0.0965634
-0.0708347
-0.0445072
-0.02868
-0.0058105
-0.00580565
0.0118588
-0.2616
-0.261709
-0.261979
-0.262321
-0.262686
-0.263085
-0.263515
-0.263975
-0.264466
-0.264989
-0.265549
-0.266154
-0.266814
-0.267539
-0.268343
-0.269236
-0.270226
-0.271311
-0.272475
-0.273678
-0.274844
-0.275855
-0.276523
-0.276596
-0.275728
-0.273475
-0.269327
-0.262775
-0.253168
-0.24027
-0.223424
-0.203292
-0.179255
-0.153499
-0.125431
-0.097717
-0.0718987
-0.0455103
-0.0295716
-0.00666813
-0.00638853
0.0111877
-0.261963
-0.261968
-0.262204
-0.262532
-0.262882
-0.263269
-0.263689
-0.264138
-0.264617
-0.265128
-0.265676
-0.266267
-0.266913
-0.267625
-0.268418
-0.269303
-0.270289
-0.271378
-0.272555
-0.273784
-0.274991
-0.276061
-0.276807
-0.27698
-0.276232
-0.274114
-0.270117
-0.263724
-0.254259
-0.241501
-0.224745
-0.204697
-0.180664
-0.154928
-0.126778
-0.0990219
-0.073119
-0.0466546
-0.0305918
-0.00766034
-0.00703498
0.0104275
-0.262357
-0.262219
-0.262421
-0.262736
-0.263071
-0.263445
-0.263853
-0.264291
-0.264757
-0.265254
-0.265787
-0.266363
-0.266993
-0.26769
-0.268468
-0.269342
-0.270323
-0.271413
-0.272601
-0.273854
-0.275101
-0.27623
-0.277057
-0.277333
-0.27671
-0.274731
-0.270899
-0.26468
-0.255372
-0.242774
-0.226125
-0.206178
-0.182163
-0.156441
-0.128261
-0.100439
-0.0744685
-0.0479206
-0.0317207
-0.00877284
-0.00772771
0.009596
-0.262832
-0.262443
-0.262616
-0.262923
-0.26324
-0.2636
-0.263996
-0.264421
-0.264874
-0.265355
-0.265872
-0.266431
-0.267043
-0.267723
-0.268485
-0.269346
-0.270318
-0.271406
-0.272601
-0.273874
-0.275157
-0.276343
-0.277248
-0.277628
-0.277127
-0.275251
-0.271631
-0.265598
-0.256458
-0.244036
-0.227515
-0.207671
-0.183708
-0.15802
-0.129823
-0.101938
-0.0759207
-0.0492882
-0.0329378
-0.00999041
-0.0084514
0.00871005
-0.263449
-0.262626
-0.26278
-0.263081
-0.263382
-0.263725
-0.264108
-0.264519
-0.264957
-0.265422
-0.265923
-0.266464
-0.267057
-0.267718
-0.268462
-0.269306
-0.270265
-0.271348
-0.272546
-0.273833
-0.275147
-0.276383
-0.277361
-0.277839
-0.277462
-0.275869
-0.272284
-0.266442
-0.257463
-0.245234
-0.228847
-0.209154
-0.185259
-0.159617
-0.131432
-0.103492
-0.077449
-0.0507373
-0.0342229
-0.0112971
-0.00919308
0.00778556
-0.263733
-0.262899
-0.262916
-0.263201
-0.263487
-0.263811
-0.264178
-0.264575
-0.264999
-0.265445
-0.265929
-0.266452
-0.267027
-0.267667
-0.268391
-0.269217
-0.270161
-0.271233
-0.272427
-0.273726
-0.275062
-0.27634
-0.277381
-0.27795
-0.277682
-0.276193
-0.272815
-0.267155
-0.258373
-0.246333
-0.230105
-0.210569
-0.186773
-0.161194
-0.133058
-0.105072
-0.0790279
-0.0522485
-0.0355565
-0.0126767
-0.00994204
0.00683691
-0.263973
-0.263196
-0.263014
-0.263277
-0.263549
-0.263849
-0.264198
-0.264579
-0.264986
-0.265419
-0.265885
-0.26639
-0.266945
-0.267566
-0.26827
-0.269075
-0.270001
-0.271058
-0.272245
-0.273543
-0.274894
-0.276205
-0.277299
-0.277947
-0.277776
-0.27642
-0.273207
-0.267731
-0.259136
-0.247299
-0.231246
-0.211882
-0.188217
-0.16272
-0.134672
-0.106655
-0.0806327
-0.0538032
-0.0369204
-0.0141127
-0.0106897
0.00587676
-0.264266
-0.263487
-0.263071
-0.26331
-0.263562
-0.263831
-0.264159
-0.264523
-0.264913
-0.265331
-0.265781
-0.26627
-0.266807
-0.267409
-0.268092
-0.268876
-0.269781
-0.27082
-0.271993
-0.273285
-0.274642
-0.275974
-0.277109
-0.277823
-0.277757
-0.276508
-0.273442
-0.268144
-0.259733
-0.248104
-0.232241
-0.213065
-0.189563
-0.164168
-0.136247
-0.108217
-0.082241
-0.0553836
-0.0382979
-0.0155889
-0.0114291
0.00491594
-0.264587
-0.26379
-0.263097
-0.263299
-0.263519
-0.263747
-0.26405
-0.264394
-0.264768
-0.265172
-0.265609
-0.266083
-0.266605
-0.267189
-0.267853
-0.268616
-0.269498
-0.270516
-0.27167
-0.27295
-0.274302
-0.275644
-0.276806
-0.277572
-0.277579
-0.276437
-0.273507
-0.268378
-0.260149
-0.248729
-0.23307
-0.214095
-0.19079
-0.165514
-0.13776
-0.109739
-0.0838322
-0.0569728
-0.0396737
-0.0170898
-0.0121549
0.00396346
-0.264923
-0.264117
-0.263097
-0.26324
-0.263411
-0.263585
-0.263857
-0.264181
-0.26454
-0.264932
-0.265358
-0.265821
-0.266331
-0.2669
-0.267546
-0.268289
-0.269149
-0.270142
-0.271273
-0.272534
-0.273873
-0.275213
-0.27639
-0.277189
-0.277251
-0.276203
-0.273394
-0.268422
-0.26037
-0.249158
-0.233715
-0.214953
-0.191875
-0.16674
-0.139191
-0.111204
-0.085386
-0.0585537
-0.0410329
-0.0185996
-0.0128619
0.00302679
-0.265265
-0.264439
-0.263058
-0.26312
-0.263218
-0.263325
-0.263562
-0.263867
-0.264212
-0.264596
-0.265016
-0.265473
-0.265975
-0.266534
-0.267165
-0.267889
-0.268726
-0.269694
-0.270799
-0.272034
-0.273352
-0.274678
-0.27586
-0.276676
-0.276777
-0.275804
-0.273097
-0.268269
-0.260386
-0.249379
-0.234163
-0.215623
-0.192801
-0.167826
-0.140515
-0.112591
-0.0868819
-0.0601087
-0.0423617
-0.0201031
-0.0135461
0.00211214
-0.265557
-0.264642
-0.262931
-0.262916
-0.262914
-0.262944
-0.26315
-0.263439
-0.263776
-0.264156
-0.264575
-0.265032
-0.26553
-0.266082
-0.266702
-0.26741
-0.268225
-0.269167
-0.270243
-0.271448
-0.272735
-0.274041
-0.275191
-0.276029
-0.276152
-0.275234
-0.272614
-0.267914
-0.260193
-0.249385
-0.234404
-0.216094
-0.193557
-0.168764
-0.141725
-0.113894
-0.0883139
-0.0616288
-0.0436563
-0.0215888
-0.0142081
0.00122407
-0.265723
-0.264586
-0.262675
-0.262618
-0.262485
-0.262429
-0.262604
-0.262881
-0.263213
-0.263594
-0.264016
-0.264475
-0.264974
-0.265523
-0.266135
-0.266829
-0.267625
-0.268541
-0.269585
-0.270757
-0.272013
-0.273296
-0.27441
-0.275226
-0.275359
-0.274484
-0.271938
-0.267358
-0.259797
-0.249192
-0.234463
-0.216402
-0.194183
-0.169597
-0.142865
-0.115149
-0.0897159
-0.063132
-0.0449351
-0.0230564
-0.014855
0.000363238
-0.266581
-0.264243
-0.262242
-0.262139
-0.261827
-0.261679
-0.261826
-0.262098
-0.262434
-0.262825
-0.263259
-0.263732
-0.264243
-0.264798
-0.265411
-0.266099
-0.26688
-0.267773
-0.268787
-0.269922
-0.271148
-0.272352
-0.273464
-0.274251
-0.274381
-0.27354
-0.271064
-0.266604
-0.259213
-0.248824
-0.234374
-0.216584
-0.194715
-0.170357
-0.143954
-0.116371
-0.0910877
-0.0646196
-0.0461866
-0.0245058
-0.0154766
-0.00047427
-0.266423
-0.26184
-0.26082
-0.260963
-0.260583
-0.260445
-0.260644
-0.260973
-0.261361
-0.2618
-0.26228
-0.262796
-0.263344
-0.263931
-0.264567
-0.265268
-0.266051
-0.266936
-0.267928
-0.269024
-0.270165
-0.271403
-0.272473
-0.273221
-0.273317
-0.272468
-0.270017
-0.265619
-0.258345
-0.248106
-0.233888
-0.216315
-0.194775
-0.170644
-0.144577
-0.117209
-0.0920857
-0.0658815
-0.0472014
-0.0258679
-0.0159863
-0.00128429
-0.251071
-0.252927
-0.257583
-0.259097
-0.259028
-0.259032
-0.259336
-0.259757
-0.260215
-0.260708
-0.261237
-0.261797
-0.262384
-0.263003
-0.263663
-0.264381
-0.265171
-0.266052
-0.26703
-0.268116
-0.269253
-0.270374
-0.271343
-0.271998
-0.271994
-0.27103
-0.26848
-0.263982
-0.256678
-0.246414
-0.232328
-0.21488
-0.193695
-0.169873
-0.14428
-0.117405
-0.0925649
-0.0670271
-0.0480561
-0.0274623
-0.0164624
-0.00228423
-0.249979
-0.250105
-0.254258
-0.255911
-0.255906
-0.255938
-0.256366
-0.256963
-0.257582
-0.258207
-0.258851
-0.259515
-0.260194
-0.260892
-0.261616
-0.262381
-0.263199
-0.264084
-0.265035
-0.266046
-0.26709
-0.268081
-0.268881
-0.269327
-0.269081
-0.267853
-0.265058
-0.26034
-0.252928
-0.242629
-0.228743
-0.211569
-0.190969
-0.167744
-0.142947
-0.116891
-0.0926229
-0.0680011
-0.0488956
-0.0291376
-0.0170409
-0.00332399
-0.246426
-0.246507
-0.249143
-0.250682
-0.251088
-0.251431
-0.252093
-0.25292
-0.253755
-0.254568
-0.25538
-0.256195
-0.257012
-0.25783
-0.258654
-0.259497
-0.260368
-0.261276
-0.262217
-0.263182
-0.264105
-0.264946
-0.265549
-0.265754
-0.26523
-0.263703
-0.260634
-0.255677
-0.248155
-0.237845
-0.224196
-0.207383
-0.187435
-0.164943
-0.141023
-0.115923
-0.0923167
-0.068673
-0.0495599
-0.0305793
-0.0176049
-0.00419428
-0.240246
-0.241278
-0.242669
-0.243825
-0.244636
-0.245442
-0.246428
-0.247516
-0.248597
-0.249642
-0.250666
-0.251676
-0.252669
-0.253644
-0.254602
-0.255552
-0.2565
-0.257452
-0.258396
-0.259315
-0.260141
-0.26083
-0.261234
-0.261193
-0.260393
-0.258572
-0.255242
-0.250071
-0.242471
-0.232205
-0.218844
-0.202479
-0.183244
-0.161598
-0.138612
-0.11457
-0.0916967
-0.0690634
-0.0500566
-0.0317885
-0.0181365
-0.00490911
-0.231573
-0.234071
-0.235017
-0.235808
-0.236859
-0.238109
-0.239456
-0.240819
-0.242149
-0.243436
-0.244691
-0.245916
-0.247106
-0.248257
-0.249369
-0.250445
-0.251486
-0.252494
-0.253451
-0.254336
-0.255083
-0.255624
-0.255833
-0.255556
-0.254496
-0.252403
-0.248844
-0.243501
-0.235874
-0.225721
-0.212711
-0.196889
-0.178432
-0.157733
-0.135744
-0.112836
-0.0907699
-0.0691558
-0.0503751
-0.0327517
-0.0186166
-0.00548121
-0.221134
-0.225118
-0.226245
-0.226914
-0.228121
-0.229737
-0.231442
-0.233086
-0.234655
-0.23617
-0.237644
-0.239077
-0.240458
-0.241781
-0.243042
-0.244242
-0.245375
-0.246439
-0.247409
-0.248267
-0.24894
-0.249345
-0.249374
-0.248878
-0.247583
-0.245254
-0.241508
-0.236051
-0.228457
-0.218496
-0.205906
-0.190713
-0.173095
-0.153422
-0.132484
-0.110752
-0.0895613
-0.0689548
-0.0505121
-0.0334705
-0.0190294
-0.00592657
-0.209954
-0.214997
-0.216601
-0.217416
-0.218794
-0.2207
-0.222721
-0.224636
-0.22643
-0.228149
-0.229816
-0.23143
-0.232979
-0.234452
-0.235842
-0.237148
-0.238357
-0.239464
-0.24044
-0.241262
-0.241863
-0.24215
-0.242015
-0.241318
-0.239819
-0.237296
-0.233414
-0.227906
-0.220407
-0.210712
-0.198601
-0.184105
-0.167371
-0.148768
-0.128916
-0.108372
-0.0881044
-0.0684788
-0.0504683
-0.0339568
-0.0193619
-0.0062621
-0.198581
-0.204268
-0.206428
-0.207568
-0.209163
-0.211305
-0.213588
-0.215748
-0.21775
-0.219649
-0.221481
-0.223249
-0.224938
-0.226534
-0.228029
-0.229415
-0.230681
-0.231813
-0.23278
-0.233549
-0.23406
-0.234261
-0.233982
-0.233108
-0.231435
-0.228763
-0.224796
-0.219296
-0.211947
-0.202575
-0.190987
-0.177229
-0.161402
-0.143879
-0.125124
-0.105751
-0.0864338
-0.0677532
-0.0502475
-0.0342283
-0.019605
-0.00650381
-0.187335
-0.193373
-0.196036
-0.197567
-0.199413
-0.20176
-0.204256
-0.206628
-0.208819
-0.21088
-0.212855
-0.214752
-0.216556
-0.218252
-0.219828
-0.221275
-0.222578
-0.223719
-0.224668
-0.225388
-0.225826
-0.225914
-0.225506
-0.224486
-0.222674
-0.219896
-0.215888
-0.210445
-0.20329
-0.194282
-0.183243
-0.170235
-0.155315
-0.138853
-0.121183
-0.102942
-0.0845823
-0.0668063
-0.0498563
-0.0343052
-0.0197538
-0.00666615
-0.176419
-0.182592
-0.185654
-0.187563
-0.189666
-0.192197
-0.194868
-0.197417
-0.199776
-0.201983
-0.204083
-0.206089
-0.207989
-0.209766
-0.211406
-0.212899
-0.214226
-0.215368
-0.216293
-0.216965
-0.217325
-0.21731
-0.21679
-0.215655
-0.213741
-0.210895
-0.206886
-0.201541
-0.194612
-0.18599
-0.175508
-0.163241
-0.149208
-0.13377
-0.117153
-0.099994
-0.0825787
-0.0656661
-0.0493038
-0.0342077
-0.0198075
-0.00676178
-0.165907
-0.172076
-0.175431
-0.177667
-0.180008
-0.182702
-0.185515
-0.188212
-0.190714
-0.193049
-0.195259
-0.19736
-0.19934
-0.201185
-0.202877
-0.204405
-0.205748
-0.206887
-0.207787
-0.208414
-0.208705
-0.208601
-0.207991
-0.206768
-0.204783
-0.201906
-0.197931
-0.192714
-0.186034
-0.177807
-0.167878
-0.15633
-0.143149
-0.128684
-0.113077
-0.0969419
-0.0804468
-0.0643577
-0.0486007
-0.0339546
-0.0197685
-0.00680148
-0.15583
-0.16191
-0.165464
-0.167963
-0.170504
-0.173335
-0.176263
-0.179076
-0.181696
-0.184141
-0.186446
-0.188627
-0.190676
-0.192577
-0.194312
-0.195867
-0.197223
-0.198357
-0.199236
-0.199822
-0.200058
-0.199885
-0.199204
-0.197921
-0.195897
-0.19302
-0.189109
-0.184044
-0.177627
-0.169798
-0.160409
-0.149549
-0.137181
-0.123632
-0.108985
-0.093814
-0.0782063
-0.0629036
-0.0477589
-0.0335633
-0.0196416
-0.00679425
-0.14621
-0.15214
-0.155814
-0.158511
-0.161209
-0.164145
-0.167159
-0.17006
-0.172772
-0.175305
-0.177688
-0.179936
-0.182041
-0.183987
-0.185758
-0.187336
-0.188702
-0.189832
-0.190693
-0.191249
-0.191443
-0.19122
-0.19049