/*--------------------------------*- C++ -*----------------------------------*\
  =========                 |
  \\      /  F ield         | OpenFOAM: The Open Source CFD Toolbox
   \\    /   O peration     | Website:  https://openfoam.org
    \\  /    A nd           | Version:  7
     \\/     M anipulation  |
\*---------------------------------------------------------------------------*/
FoamFile
{
    version     2.0;
    format      ascii;
    class       volScalarField;
    location    "15";
    object      p;
}
// * * * * * * * * * * * * * * * * * * * * * * * * * * * * * * * * * * * * * //

dimensions      [0 2 -2 0 0 0 0];

internalField   nonuniform List<scalar> 
6386
(
-0.287949
-0.293499
-0.295442
-0.295888
-0.295066
-0.293048
-0.289996
-0.286069
-0.281382
-0.275861
-0.288691
-0.294119
-0.295982
-0.296356
-0.295467
-0.293388
-0.290279
-0.286306
-0.281574
-0.275931
-0.290172
-0.295355
-0.297059
-0.297289
-0.296266
-0.294064
-0.290841
-0.286774
-0.281954
-0.276064
-0.29238
-0.297199
-0.298666
-0.298679
-0.297455
-0.295069
-0.291674
-0.287463
-0.282513
-0.27624
-0.295299
-0.299638
-0.300791
-0.300515
-0.299023
-0.29639
-0.292764
-0.288359
-0.283238
-0.276421
-0.298911
-0.302656
-0.303419
-0.302785
-0.300956
-0.298015
-0.294097
-0.289447
-0.284124
-0.276543
-0.303192
-0.306236
-0.306534
-0.305471
-0.30324
-0.299927
-0.295656
-0.290707
-0.285161
-0.27668
-0.308118
-0.310358
-0.310119
-0.308557
-0.305858
-0.302109
-0.297424
-0.292116
-0.28619
-0.27686
-0.313663
-0.314999
-0.314153
-0.312026
-0.308793
-0.304547
-0.299385
-0.29366
-0.287315
-0.276894
-0.319801
-0.320138
-0.318616
-0.315858
-0.31203
-0.307226
-0.301525
-0.295323
-0.28851
-0.276752
-0.326506
-0.325753
-0.323489
-0.320039
-0.315555
-0.310135
-0.303834
-0.297091
-0.289748
-0.276415
-0.333752
-0.331817
-0.328753
-0.32455
-0.319355
-0.313266
-0.306308
-0.298959
-0.291019
-0.275836
-0.341513
-0.338314
-0.334388
-0.329379
-0.323422
-0.316617
-0.308951
-0.300936
-0.292322
-0.274976
-0.349763
-0.345217
-0.340375
-0.33451
-0.327748
-0.320188
-0.311773
-0.303038
-0.293668
-0.273841
-0.358475
-0.352503
-0.346695
-0.339933
-0.33233
-0.323986
-0.314796
-0.305302
-0.295083
-0.272436
-0.360146
-0.353328
-0.345635
-0.337166
-0.328022
-0.318049
-0.30778
-0.296631
-0.270873
-0.368119
-0.360255
-0.351603
-0.342253
-0.332309
-0.321571
-0.310544
-0.298354
-0.269252
-0.376391
-0.367451
-0.357823
-0.347589
-0.336864
-0.325418
-0.313682
-0.300148
-0.267375
-0.37489
-0.364278
-0.353169
-0.341704
-0.329681
-0.317385
-0.302202
-0.266179
-0.382542
-0.370945
-0.358977
-0.346836
-0.334431
-0.321977
-0.306665
-0.275159
-0.377792
-0.364977
-0.352204
-0.33954
-0.327296
-0.315565
-0.313507
-0.371121
-0.357697
-0.344696
-0.332404
-0.32155
-0.32616
-0.377363
-0.363246
-0.349751
-0.337049
-0.325584
-0.330465
-0.368814
-0.354698
-0.341369
-0.328991
-0.332645
-0.359519
-0.345397
-0.331933
-0.333318
-0.349091
-0.334355
-0.332854
-0.336247
-0.331576
-0.329658
-0.337613
-0.32966
-0.336261
-0.331582
-0.349119
-0.334369
-0.332862
-0.359556
-0.345423
-0.331947
-0.333329
-0.368859
-0.354732
-0.341394
-0.329005
-0.332658
-0.377414
-0.363288
-0.349784
-0.337071
-0.325597
-0.330478
-0.371168
-0.357735
-0.344725
-0.332425
-0.321562
-0.326173
-0.377843
-0.36502
-0.352239
-0.339567
-0.327316
-0.315577
-0.313517
-0.382595
-0.370991
-0.359016
-0.346869
-0.334456
-0.321994
-0.306674
-0.275156
-0.374938
-0.36432
-0.353205
-0.341734
-0.329703
-0.317401
-0.302211
-0.266173
-0.376439
-0.367494
-0.357861
-0.347622
-0.336891
-0.325439
-0.313697
-0.300157
-0.26737
-0.368162
-0.360294
-0.351638
-0.342283
-0.332334
-0.32159
-0.310558
-0.298363
-0.269249
-0.36766
-0.360185
-0.353364
-0.345667
-0.337193
-0.328045
-0.318067
-0.307793
-0.296639
-0.270871
-0.358513
-0.352538
-0.346727
-0.339962
-0.332355
-0.324007
-0.314812
-0.305314
-0.295091
-0.272436
-0.349797
-0.345249
-0.340404
-0.334537
-0.327771
-0.320207
-0.311788
-0.30305
-0.293676
-0.273841
-0.341543
-0.338342
-0.334414
-0.329403
-0.323443
-0.316634
-0.308965
-0.300946
-0.29233
-0.274977
-0.333779
-0.331843
-0.328777
-0.324572
-0.319374
-0.313282
-0.306321
-0.29897
-0.291026
-0.27584
-0.326529
-0.325775
-0.32351
-0.320058
-0.315572
-0.31015
-0.303846
-0.2971
-0.289755
-0.276418
-0.319822
-0.320158
-0.318635
-0.315876
-0.312046
-0.307239
-0.301536
-0.295332
-0.288517
-0.276756
-0.313681
-0.315016
-0.314169
-0.312041
-0.308807
-0.304559
-0.299395
-0.293668
-0.287321
-0.276898
-0.308134
-0.310373
-0.310133
-0.30857
-0.30587
-0.302119
-0.297433
-0.292123
-0.286196
-0.276864
-0.303206
-0.306249
-0.306547
-0.305482
-0.30325
-0.299935
-0.295664
-0.290714
-0.285166
-0.276684
-0.298922
-0.302667
-0.303429
-0.302794
-0.300965
-0.298022
-0.294104
-0.289452
-0.284129
-0.276546
-0.295309
-0.299646
-0.300799
-0.300523
-0.29903
-0.296396
-0.292769
-0.288364
-0.283242
-0.276424
-0.292387
-0.297205
-0.298672
-0.298685
-0.29746
-0.295073
-0.291678
-0.287467
-0.282517
-0.276243
-0.290177
-0.29536
-0.297064
-0.297293
-0.29627
-0.294068
-0.290844
-0.286776
-0.281957
-0.276065
-0.288694
-0.294122
-0.295985
-0.296359
-0.29547
-0.29339
-0.290281
-0.286307
-0.281575
-0.275932
-0.28795
-0.2935
-0.295443
-0.295889
-0.295067
-0.293049
-0.289997
-0.28607
-0.281382
-0.275861
-0.271322
-0.266327
-0.260722
-0.254627
-0.247972
-0.240817
-0.233209
-0.225198
-0.216837
-0.208186
-0.199305
-0.190253
-0.181086
-0.17186
-0.162625
-0.153428
-0.144311
-0.135314
-0.126471
-0.117812
-0.109365
-0.101151
-0.0931912
-0.085502
-0.0780971
-0.0709866
-0.0641798
-0.0576796
-0.0514957
-0.0456141
-0.0400677
-0.0347814
-0.0299016
-0.0251169
-0.0210249
-0.0164485
-0.013592
-0.00833771
-0.00816219
0.000352484
-0.00641103
0.0125662
-0.271727
-0.266647
-0.260995
-0.254874
-0.248196
-0.241021
-0.233397
-0.225371
-0.216999
-0.208338
-0.199447
-0.190386
-0.181212
-0.171979
-0.162738
-0.153534
-0.144412
-0.135409
-0.12656
-0.117896
-0.109442
-0.101223
-0.093258
-0.0855637
-0.0781538
-0.0710386
-0.0642273
-0.0577228
-0.0515349
-0.0456495
-0.0400996
-0.03481
-0.0299271
-0.0251398
-0.0210448
-0.016467
-0.0136064
-0.00835418
-0.00816956
0.000332802
-0.00640495
0.0125288
-0.272532
-0.267283
-0.261535
-0.255363
-0.248639
-0.241425
-0.233769
-0.225715
-0.217319
-0.208637
-0.199729
-0.190652
-0.181464
-0.172217
-0.162962
-0.153747
-0.144612
-0.135598
-0.126737
-0.118061
-0.109597
-0.101367
-0.093391
-0.0856864
-0.0782667
-0.071142
-0.0643218
-0.0578088
-0.0516129
-0.04572
-0.040163
-0.034867
-0.0299779
-0.0251855
-0.0210846
-0.0165041
-0.0136354
-0.00838724
-0.00818445
0.000293321
-0.00639295
0.0124543
-0.27373
-0.268223
-0.262332
-0.256086
-0.249293
-0.242021
-0.234316
-0.226222
-0.217791
-0.209079
-0.200145
-0.191045
-0.181836
-0.172569
-0.163296
-0.154062
-0.14491
-0.135878
-0.127001
-0.118308
-0.109827
-0.101581
-0.0935892
-0.0858695
-0.0784351
-0.0712964
-0.0644628
-0.0579371
-0.0517293
-0.0458252
-0.0402578
-0.0349522
-0.0300538
-0.0252539
-0.021144
-0.0165597
-0.0136787
-0.00843677
-0.00820677
0.000234212
-0.00637512
0.012343
-0.275333
-0.269449
-0.26337
-0.25703
-0.250144
-0.242795
-0.235028
-0.22688
-0.218405
-0.209656
-0.200689
-0.19156
-0.182324
-0.173032
-0.163735
-0.154478
-0.145303
-0.136249
-0.127349
-0.118634
-0.110131
-0.101864
-0.0938518
-0.0861119
-0.0786582
-0.071501
-0.0646497
-0.0581072
-0.0518836
-0.0459647
-0.0403834
-0.0350651
-0.0301546
-0.0253446
-0.0212229
-0.0166334
-0.0137362
-0.00850257
-0.00823642
0.000155737
-0.00635155
0.0121957
-0.277376
-0.270914
-0.264623
-0.258177
-0.251172
-0.24373
-0.235887
-0.227678
-0.21915
-0.210357
-0.201351
-0.192188
-0.182921
-0.1736
-0.164275
-0.15499
-0.145788
-0.136706
-0.127779
-0.119037
-0.110508
-0.102215
-0.0941771
-0.0864125
-0.0789349
-0.0717547
-0.0648816
-0.0583183
-0.0520751
-0.0461379
-0.0405394
-0.0352053
-0.0302797
-0.0254572
-0.0213208
-0.016725
-0.0138076
-0.00858439
-0.00827323
5.82408e-05
-0.00632239
0.0120133
-0.279585
-0.272645
-0.266071
-0.259494
-0.252364
-0.244809
-0.236879
-0.228597
-0.220011
-0.211169
-0.202121
-0.192921
-0.183619
-0.174265
-0.164908
-0.155593
-0.146359
-0.137246
-0.128288
-0.119515
-0.110955
-0.102631
-0.0945634
-0.0867696
-0.0792638
-0.0720565
-0.0651574
-0.0585695
-0.052303
-0.0463439
-0.040725
-0.0353722
-0.0304285
-0.0255913
-0.0214373
-0.0168342
-0.0138926
-0.00868191
-0.00831702
-5.78538e-05
-0.0062878
0.0117969
-0.28206
-0.274727
-0.267701
-0.260968
-0.253691
-0.246009
-0.237981
-0.229622
-0.220972
-0.212078
-0.202986
-0.193747
-0.184409
-0.175021
-0.16563
-0.156281
-0.147013
-0.137865
-0.128872
-0.120064
-0.111469
-0.10311
-0.0950086
-0.0871815
-0.0796433
-0.0724048
-0.0654758
-0.0588595
-0.0525663
-0.046582
-0.0409394
-0.0355651
-0.0306005
-0.0257463
-0.021572
-0.0169605
-0.0139908
-0.00879475
-0.00836757
-0.000192046
-0.00624799
0.0115479
-0.284842
-0.277137
-0.269492
-0.262573
-0.255128
-0.247305
-0.239172
-0.23073
-0.222016
-0.21307
-0.203934
-0.194656
-0.185282
-0.175859
-0.166433
-0.157048
-0.147744
-0.138559
-0.129528
-0.120681
-0.112047
-0.10365
-0.0955104
-0.087646
-0.0800715
-0.0727979
-0.0658354
-0.0591872
-0.0528637
-0.046851
-0.0411818
-0.0357831
-0.0307949
-0.0259215
-0.0217241
-0.0171033
-0.0141017
-0.00892249
-0.00842463
-0.000343762
-0.00620314
0.0112677
-0.287877
-0.279502
-0.271383
-0.264278
-0.256647
-0.248672
-0.240428
-0.231904
-0.223126
-0.214129
-0.204951
-0.195636
-0.186227
-0.17677
-0.167309
-0.157887
-0.148545
-0.139321
-0.13025
-0.121362
-0.112686
-0.104247
-0.0960661
-0.0881608
-0.0805463
-0.0732342
-0.0662346
-0.059551
-0.0531939
-0.0471498
-0.041451
-0.0360253
-0.0310109
-0.0261163
-0.0218932
-0.0172621
-0.0142249
-0.00906463
-0.00848791
-0.000512364
-0.00615347
0.0109579
-0.291181
-0.28207
-0.273374
-0.26605
-0.258217
-0.250084
-0.241728
-0.233121
-0.224282
-0.215239
-0.206023
-0.196674
-0.187234
-0.177744
-0.16825
-0.158792
-0.149412
-0.140148
-0.131034
-0.122103
-0.113383
-0.104899
-0.0966729
-0.0887233
-0.0810656
-0.0737115
-0.0666715
-0.0599493
-0.0535556
-0.0474771
-0.0417458
-0.0362906
-0.0312474
-0.0263298
-0.0220783
-0.0174363
-0.0143597
-0.00922064
-0.00855713
-0.000697149
-0.0060992
0.0106203
-0.294562
-0.284763
-0.275419
-0.267854
-0.259808
-0.251513
-0.243047
-0.234362
-0.225469
-0.216385
-0.207137
-0.19776
-0.188292
-0.178773
-0.169247
-0.159755
-0.150337
-0.141032
-0.131875
-0.122899
-0.114132
-0.105601
-0.0973276
-0.0893309
-0.0816269
-0.0742277
-0.0671442
-0.0603804
-0.0539472
-0.0478315
-0.0420651
-0.036578
-0.0315036
-0.026561
-0.0222787
-0.0176252
-0.0145056
-0.00938993
-0.00863197
-0.000897356
-0.00604055
0.0102567
-0.297854
-0.287503
-0.277472
-0.26965
-0.261387
-0.252933
-0.244362
-0.235608
-0.226668
-0.217552
-0.208281
-0.198882
-0.189391
-0.179848
-0.170294
-0.160769
-0.151315
-0.141969
-0.132769
-0.123746
-0.114931
-0.106351
-0.0980274
-0.0899809
-0.0822277
-0.0747806
-0.0676507
-0.0608425
-0.054367
-0.0482116
-0.0424076
-0.0368863
-0.0317783
-0.0268092
-0.0224937
-0.017828
-0.014662
-0.00957188
-0.00871211
-0.00111217
-0.00597775
0.00986899
-0.301381
-0.290268
-0.279492
-0.271401
-0.262921
-0.254318
-0.245654
-0.236841
-0.227866
-0.218729
-0.209441
-0.200029
-0.190523
-0.18096
-0.171382
-0.161828
-0.152339
-0.142954
-0.13371
-0.12464
-0.115776
-0.107144
-0.0987691
-0.0906705
-0.0828658
-0.075368
-0.0681892
-0.0613338
-0.0548135
-0.0486158
-0.0427718
-0.0372143
-0.0320706
-0.0270734
-0.0227222
-0.018044
-0.0148283
-0.00976583
-0.00879722
-0.00134076
-0.00591099
0.00945897
-0.304774
-0.292943
-0.281434
-0.273061
-0.264372
-0.255641
-0.246901
-0.238045
-0.229048
-0.219901
-0.210608
-0.201191
-0.191677
-0.182101
-0.172503
-0.162923
-0.153402
-0.143979
-0.134692
-0.125576
-0.116662
-0.107978
-0.0995489
-0.0913962
-0.0835376
-0.075987
-0.0687567
-0.0618519
-0.0552844
-0.0490422
-0.043156
-0.0375603
-0.0323788
-0.0273522
-0.0229632
-0.0182722
-0.0150035
-0.00997102
-0.00888681
-0.00158229
-0.00584026
0.00902847
-0.307876
-0.295378
-0.28322
-0.274568
-0.265697
-0.256872
-0.24808
-0.2392
-0.230197
-0.221053
-0.211766
-0.202353
-0.192838
-0.183256
-0.173644
-0.164043
-0.154493
-0.145034
-0.135706
-0.126543
-0.117579
-0.108842
-0.100359
-0.0921507
-0.0842368
-0.0766316
-0.0693482
-0.0623921
-0.0557755
-0.0494872
-0.043557
-0.0379216
-0.0327006
-0.0276436
-0.023215
-0.0185113
-0.0151865
-0.0101864
-0.00898023
-0.00183578
-0.00576555
0.00857929
-0.310312
-0.297331
-0.284791
-0.275887
-0.266871
-0.257998
-0.249185
-0.240301
-0.231308
-0.22218
-0.21291
-0.203509
-0.194002
-0.18442
-0.174799
-0.165181
-0.155606
-0.146115
-0.136747
-0.127539
-0.118525
-0.109735
-0.101197
-0.0929322
-0.0849617
-0.0773005
-0.0699623
-0.0629533
-0.056286
-0.0499499
-0.0439741
-0.0382977
-0.0330356
-0.0279473
-0.0234773
-0.0187607
-0.0153775
-0.0104113
-0.00907818
-0.00209956
-0.00568874
0.00811401
-0.311798
-0.29881
-0.286249
-0.277073
-0.267934
-0.25906
-0.250258
-0.241393
-0.232427
-0.223328
-0.214086
-0.204709
-0.195218
-0.185643
-0.17602
-0.166389
-0.156792
-0.14727
-0.137862
-0.128608
-0.119543
-0.110697
-0.1021
-0.0937755
-0.0857441
-0.0780223
-0.0706247
-0.0635583
-0.0568357
-0.0504476
-0.0444222
-0.0387011
-0.0333945
-0.0282716
-0.0237574
-0.0190254
-0.0155813
-0.0106474
-0.00918482
-0.0023715
-0.00561506
0.00763602
-0.312384
-0.299272
-0.287254
-0.277915
-0.268748
-0.259965
-0.25124
-0.242438
-0.23353
-0.224487
-0.215295
-0.205961
-0.196504
-0.186951
-0.177338
-0.167704
-0.158091
-0.148541
-0.139096
-0.129795
-0.120675
-0.11177
-0.103108
-0.0947168
-0.0866173
-0.0788274
-0.0713626
-0.0642309
-0.0574456
-0.0509981
-0.0449161
-0.039144
-0.0337866
-0.0286245
-0.0240604
-0.0193101
-0.0157995
-0.0108979
-0.00929797
-0.00265587
-0.00553717
0.00714191
-0.30531
-0.294061
-0.286062
-0.277432
-0.26859
-0.260113
-0.251588
-0.242918
-0.234112
-0.225153
-0.216034
-0.206762
-0.197356
-0.187844
-0.17826
-0.168644
-0.159037
-0.149482
-0.140023
-0.130699
-0.121548
-0.112605
-0.103902
-0.0954647
-0.0873172
-0.0794781
-0.0719637
-0.0647832
-0.0579498
-0.051457
-0.0453302
-0.0395195
-0.0341195
-0.028931
-0.024319
-0.019569
-0.0159809
-0.0111467
-0.0093702
-0.00297362
-0.00539175
0.00660558
-0.268785
-0.279393
-0.283362
-0.276656
-0.268391
-0.260294
-0.251975
-0.243389
-0.234605
-0.225637
-0.216492
-0.207184
-0.197741
-0.188191
-0.178574
-0.168928
-0.159297
-0.149723
-0.140247
-0.130911
-0.121751
-0.112802
-0.104094
-0.0956537
-0.0875038
-0.079663
-0.0721471
-0.064966
-0.058131
-0.0516389
-0.0455085
-0.0397027
-0.0342917
-0.0291214
-0.0244748
-0.0197838
-0.0160913
-0.0114316
-0.00935931
-0.0034401
-0.00506834
0.00582907
-0.263363
-0.268982
-0.274825
-0.269448
-0.262084
-0.254852
-0.247264
-0.239254
-0.230945
-0.222394
-0.213623
-0.204658
-0.19553
-0.186273
-0.176926
-0.167529
-0.158125
-0.148757
-0.139468
-0.130298
-0.121286
-0.112466
-0.103871
-0.0955271
-0.08746
-0.0796892
-0.0722314
-0.0650983
-0.0583014
-0.0518408
-0.0457319
-0.0399469
-0.0345407
-0.029391
-0.0247232
-0.0200765
-0.0163021
-0.0117741
-0.00945703
-0.00392448
-0.00486522
0.00495474
-0.258215
-0.260745
-0.265995
-0.261476
-0.254849
-0.248308
-0.241377
-0.233942
-0.226141
-0.218052
-0.209708
-0.201143
-0.19239
-0.183487
-0.174472
-0.165386
-0.156272
-0.147171
-0.138127
-0.129181
-0.12037
-0.111731
-0.103296
-0.0950946
-0.0871516
-0.0794886
-0.0721235
-0.0650694
-0.0583387
-0.0519339
-0.0458688
-0.0401226
-0.0347395
-0.0296208
-0.0249498
-0.0203459
-0.0165162
-0.0120948
-0.00958756
-0.0043674
-0.00474308
0.00412135
-0.253035
-0.253088
-0.257311
-0.253437
-0.247444
-0.241465
-0.235112
-0.228231
-0.22094
-0.213325
-0.205426
-0.197279
-0.188922
-0.180391
-0.171728
-0.162973
-0.154167
-0.145353
-0.136574
-0.127869
-0.119279
-0.110839
-0.102582
-0.0945395
-0.0867366
-0.0791962
-0.0719374
-0.0649749
-0.0583218
-0.051983
-0.0459712
-0.0402714
-0.0349193
-0.0298364
-0.0251697
-0.0206096
-0.0167339
-0.0124131
-0.00973119
-0.00480703
-0.00464294
0.0032973
-0.246827
-0.245247
-0.248242
-0.244802
-0.239396
-0.233942
-0.228149
-0.221836
-0.215088
-0.207989
-0.20058
-0.192897
-0.18498
-0.176866
-0.168595
-0.160208
-0.151747
-0.143253
-0.13477
-0.126337
-0.117995
-0.109779
-0.101724
-0.0938608
-0.086217
-0.0788163
-0.0716793
-0.064822
-0.0582586
-0.0519961
-0.0460468
-0.0404009
-0.0350869
-0.030044
-0.0253881
-0.0208716
-0.0169583
-0.0127309
-0.00988938
-0.0052428
-0.00456515
0.00248811
-0.239022
-0.236669
-0.238464
-0.235352
-0.230536
-0.225616
-0.220385
-0.214657
-0.208487
-0.201945
-0.195071
-0.187901
-0.180471
-0.172819
-0.164987
-0.157012
-0.148937
-0.140804
-0.132654
-0.124529
-0.116466
-0.108505
-0.10068
-0.0930224
-0.0855612
-0.0783217
-0.0713254
-0.0645903
-0.0581316
-0.0519585
-0.0460832
-0.0405005
-0.0352337
-0.0302364
-0.0255991
-0.0211269
-0.0171859
-0.0130439
-0.010061
-0.00566816
-0.00451468
0.00170644
-0.229522
-0.227052
-0.227836
-0.225038
-0.220846
-0.21649
-0.211834
-0.206711
-0.201146
-0.195196
-0.188896
-0.18228
-0.17538
-0.168235
-0.160882
-0.153361
-0.145713
-0.137979
-0.1302
-0.122416
-0.114668
-0.106993
-0.0994265
-0.0920017
-0.0847482
-0.0776925
-0.0708578
-0.0642635
-0.0579261
-0.051857
-0.0460687
-0.0405601
-0.0353505
-0.0304058
-0.0257957
-0.0213697
-0.0174111
-0.0133478
-0.0102421
-0.00607867
-0.0044912
0.000963096
-0.218369
-0.216279
-0.216323
-0.213875
-0.210346
-0.206595
-0.202535
-0.198033
-0.193097
-0.187767
-0.182074
-0.176045
-0.169712
-0.163111
-0.156276
-0.149247
-0.142063
-0.134764
-0.127391
-0.119984
-0.112582
-0.105224
-0.0979464
-0.0907819
-0.0837616
-0.0769135
-0.0702619
-0.0638279
-0.0576296
-0.0516801
-0.0459929
-0.0405701
-0.0354287
-0.0305445
-0.0259708
-0.0215941
-0.0176283
-0.0136381
-0.010428
-0.00647052
-0.00449233
0.000267646
-0.205769
-0.20439
-0.203991
-0.201948
-0.199112
-0.196001
-0.192558
-0.18869
-0.184397
-0.179706
-0.174642
-0.169227
-0.163489
-0.15746
-0.151175
-0.14467
-0.137983
-0.131152
-0.124218
-0.117219
-0.110196
-0.103185
-0.0962247
-0.0893478
-0.0825866
-0.07597
-0.0695238
-0.0632705
-0.0572295
-0.0514163
-0.0458449
-0.0405209
-0.0354594
-0.0306448
-0.0261172
-0.021794
-0.0178313
-0.0139103
-0.0106137
-0.00683954
-0.00451507
-0.000371115
-0.192064
-0.191559
-0.190997
-0.189411
-0.187278
-0.184827
-0.182014
-0.178785
-0.175139
-0.171094
-0.166668
-0.161879
-0.156753
-0.151318
-0.145605
-0.139649
-0.133485
-0.127149
-0.120682
-0.11412
-0.107502
-0.100867
-0.094251
-0.087688
-0.0812109
-0.0748494
-0.0686306
-0.0625785
-0.056714
-0.051054
-0.0456141
-0.0404025
-0.0354333
-0.0306982
-0.026227
-0.0219626
-0.0180136
-0.0141592
-0.0107937
-0.00718134
-0.00455577
-0.000945526
-0.177663
-0.178059
-0.177562
-0.176469
-0.175023
-0.173229
-0.171043
-0.168445
-0.165438
-0.162033
-0.158242
-0.154081
-0.149572
-0.144739
-0.139611
-0.134218
-0.128594
-0.122774
-0.116795
-0.110692
-0.104505
-0.0982691
-0.0920212
-0.085796
-0.0796261
-0.0735422
-0.0675724
-0.0617416
-0.0560722
-0.0505828
-0.0452902
-0.0402051
-0.0353413
-0.0306963
-0.0262923
-0.0220931
-0.0181685
-0.0143794
-0.0109621
-0.00749152
-0.00461011
-0.00144958
-0.162989
-0.164207
-0.163937
-0.163348
-0.162548
-0.161384
-0.159805
-0.157816
-0.155427
-0.152643
-0.149471
-0.145927
-0.142027
-0.137793
-0.133252
-0.128427
-0.123352
-0.118059
-0.112581
-0.106955
-0.101215
-0.0953977
-0.0895384
-0.0836713
-0.0778294
-0.0720434
-0.0663422
-0.0607519
-0.0552957
-0.0499939
-0.0448643
-0.03992
-0.0351747
-0.0306312
-0.0263054
-0.0221786
-0.0182892
-0.0145655
-0.0111134
-0.00776583
-0.0046732
-0.00187934
-0.14842
-0.150324
-0.150373
-0.150271
-0.150055
-0.149474
-0.148465
-0.14705
-0.145245
-0.14305
-0.140472
-0.137521
-0.134212
-0.130564
-0.126596
-0.122337
-0.11781
-0.113046
-0.108077
-0.102935
-0.0976539
-0.0922685
-0.0868127
-0.0813201
-0.0758231
-0.0703526
-0.0649376
-0.0596049
-0.0543788
-0.0492806
-0.0443293
-0.0395399
-0.0349263
-0.0304956
-0.0262593
-0.0222127
-0.0183694
-0.0147123
-0.0112418
-0.00800047
-0.00473986
-0.00223322
-0.134265
-0.136693
-0.137094
-0.137438
-0.137732
-0.137668
-0.137178
-0.136292
-0.135026
-0.133381
-0.131359
-0.12897
-0.126224
-0.123137
-0.119728
-0.116016
-0.112028
-0.107787
-0.103324
-0.0986674
-0.0938502
-0.088904
-0.0838613
-0.0787545
-0.0736153
-0.0684742
-0.06336
-0.0583
-0.0533188
-0.0484389
-0.0436801
-0.0390589
-0.0345898
-0.0302833
-0.0261477
-0.0221896
-0.0184034
-0.0148152
-0.0113423
-0.00819223
-0.00480494
-0.00251185
-0.120744
-0.123537
-0.124277
-0.125011
-0.125733
-0.126116
-0.126085
-0.125671
-0.124893
-0.12375
-0.122241
-0.120374
-0.118156
-0.1156
-0.112721
-0.109537
-0.106067
-0.102337
-0.0983702
-0.0941942
-0.0898384
-0.0853324
-0.0807068
-0.0759922
-0.0712192
-0.0664175
-0.0616154
-0.0568401
-0.0521166
-0.0474678
-0.0429141
-0.0384736
-0.0341609
-0.0299896
-0.0259657
-0.0221047
-0.0183863
-0.0148699
-0.0114101
-0.0083387
-0.00486357
-0.00271819
-0.107993
-0.111012
-0.112052
-0.113111
-0.114179
-0.114935
-0.115298
-0.115299
-0.114953
-0.114259
-0.113215
-0.111825
-0.110094
-0.108032
-0.105652
-0.102966
-0.0999929
-0.0967522
-0.093267
-0.0895591
-0.0856565
-0.0815861
-0.0773761
-0.0730551
-0.0686522
-0.0641958
-0.0597135
-0.0552319
-0.050776
-0.0463689
-0.0420314
-0.0377825
-0.0336374
-0.0296116
-0.0257098
-0.0219541
-0.0183142
-0.0148735
-0.0114416
-0.00843843
-0.00491132
-0.00285729
-0.0960816
-0.0992142
-0.1005
-0.101816
-0.103157
-0.104213
-0.104906
-0.10526
-0.10529
-0.104992
-0.104363
-0.103403
-0.102116
-0.100508
-0.0985887
-0.0963692
-0.0938634
-0.0910879
-0.0880615
-0.0848063
-0.0813439
-0.0776994
-0.0738986
-0.069968
-0.0659347
-0.0618255
-0.0576671
-0.053485
-0.0493039
-0.0451467
-0.0410345
-0.0369866
-0.0330186
-0.0291478
-0.0253779
-0.0217357
-0.0181842
-0.0148236
-0.0114338
-0.00849103
-0.00494441
-0.002936
-0.0850273
-0.0881874
-0.0896627
-0.0911734
-0.0927182
-0.0940106
-0.0949715
-0.0956209
-0.0959706
-0.0960156
-0.0957501
-0.0951724
-0.094284
-0.0930887
-0.0915925
-0.0898037
-0.0877333
-0.0853948
-0.082804
-0.0799789
-0.0769393
-0.0737068
-0.0703048
-0.0667573
-0.0630891
-0.0593255
-0.0554914
-0.0516116
-0.0477096
-0.0438082
-0.039928
-0.0360888
-0.0323062
-0.0285986
-0.0249693
-0.0214485
-0.0179951
-0.0147192
-0.0113847
-0.00849716
-0.00495983
-0.00296243
-0.0748137
-0.0779397
-0.0795509
-0.0812011
-0.0828921
-0.0843622
-0.0855351
-0.0864255
-0.0870424
-0.0873792
-0.0874285
-0.0871863
-0.086652
-0.0858267
-0.0847139
-0.0833192
-0.0816505
-0.0797184
-0.0775356
-0.075117
-0.0724796
-0.069642
-0.0666248
-0.0634495
-0.0601387
-0.0567156
-0.0532035
-0.0496255
-0.0460044
-0.042362
-0.0387186
-0.0350939
-0.0315034
-0.027966
-0.0244852
-0.0210928
-0.0177462
-0.0145603
-0.0112933
-0.00845845
-0.00495545
-0.00294546
-0.065405
-0.0684543
-0.0701553
-0.0718979
-0.0736866
-0.0752848
-0.0766199
-0.0777022
-0.0785377
-0.0791188
-0.0794364
-0.0794847
-0.0792611
-0.0787644
-0.0779956
-0.0769578
-0.0756563
-0.0740988
-0.0722951
-0.0702572
-0.067999
-0.0655367
-0.0628876
-0.060071
-0.0571069
-0.0540164
-0.0508209
-0.0475419
-0.0442008
-0.0408185
-0.0374146
-0.0340082
-0.0306148
-0.0272534
-0.0239278
-0.0206701
-0.0174386
-0.0143478
-0.0111596
-0.00837734
-0.00492999
-0.0028941
-0.0567554
-0.0597002
-0.0614529
-0.0632495
-0.0650962
-0.0667808
-0.0682351
-0.0694658
-0.0704765
-0.0712583
-0.0718011
-0.0720977
-0.0721434
-0.0719353
-0.0714722
-0.0707548
-0.0697861
-0.0685709
-0.0671165
-0.0654321
-0.063529
-0.0614201
-0.0591207
-0.0566469
-0.0540166
-0.0512484
-0.0483617
-0.0453764
-0.0423123
-0.039189
-0.0360251
-0.0328392
-0.0296464
-0.0264656
-0.0233005
-0.0201832
-0.0170739
-0.0140836
-0.0109843
-0.00825692
-0.00488303
-0.00281694
-0.0488159
-0.0516391
-0.0534132
-0.0552331
-0.057106
-0.0588428
-0.0603801
-0.0617216
-0.0628688
-0.0638123
-0.0645412
-0.0650469
-0.0653234
-0.0653661
-0.0651718
-0.0647394
-0.0640695
-0.0631647
-0.0620297
-0.0606712
-0.0590977
-0.0573198
-0.0553497
-0.0532013
-0.0508898
-0.0484316
-0.0458441
-0.0431452
-0.0403529
-0.0374855
-0.0345606
-0.0315957
-0.0286054
-0.025608
-0.0226079
-0.0196358
-0.0166549
-0.0137706
-0.0107689
-0.0081007
-0.00481485
-0.00272171
-0.0415379
-0.0442296
-0.0460019
-0.0478211
-0.0496953
-0.0514565
-0.0530465
-0.0544668
-0.0557172
-0.056788
-0.0576677
-0.058347
-0.0588187
-0.0590768
-0.0591166
-0.0589353
-0.0585315
-0.0579058
-0.0570606
-0.0560002
-0.0547307
-0.0532601
-0.0515983
-0.0497565
-0.0477476
-0.0455858
-0.043286
-0.0408643
-0.038337
-0.0357208
-0.0330319
-0.0302868
-0.0274996
-0.0246875
-0.0218553
-0.0190323
-0.0161852
-0.0134119
-0.0105158
-0.00791242
-0.00472641
-0.00261496
-0.0348746
-0.0374303
-0.0391832
-0.0409835
-0.0428398
-0.0446035
-0.0462215
-0.0476936
-0.0490187
-0.0501867
-0.0511861
-0.0520071
-0.0526416
-0.0530825
-0.0533241
-0.053362
-0.0531931
-0.0528163
-0.052232
-0.0514422
-0.050451
-0.0492641
-0.0478887
-0.046334
-0.0446104
-0.0427297
-0.0407049
-0.0385499
-0.0362792
-0.0339078
-0.0314506
-0.0289228
-0.0263376
-0.0237113
-0.021049
-0.018378
-0.015669
-0.0130116
-0.0102277
-0.00769591
-0.00461911
-0.00250184
-0.0287823
-0.0312011
-0.0329217
-0.0346896
-0.0365134
-0.0382623
-0.0398884
-0.0413903
-0.0427659
-0.0440054
-0.0450974
-0.0460318
-0.0468
-0.0473942
-0.0478077
-0.0480349
-0.0480716
-0.0479149
-0.0475635
-0.0470178
-0.0462795
-0.0453524
-0.0442416
-0.0429538
-0.0414974
-0.0398818
-0.0381181
-0.036218
-0.0341942
-0.0320599
-0.0298286
-0.0275142
-0.0251287
-0.0226875
-0.0201959
-0.0176789
-0.0151111
-0.0125741
-0.0099079
-0.00745497
-0.00449474
-0.00238617
-0.0232204
-0.0255039
-0.0271832
-0.0289088
-0.0306894
-0.0324105
-0.0340289
-0.0355425
-0.0369486
-0.0382378
-0.039399
-0.040422
-0.0412981
-0.0420189
-0.0425772
-0.0429663
-0.0431811
-0.0432174
-0.0430725
-0.042745
-0.0422351
-0.0415444
-0.0406761
-0.039635
-0.0384271
-0.03706
-0.0355426
-0.0338846
-0.0320968
-0.0301908
-0.0281783
-0.026072
-0.0238828
-0.0216248
-0.0193033
-0.0169414
-0.0145172
-0.0121041
-0.00956021
-0.00719331
-0.00435535
-0.00227052
-0.0181512
-0.0203029
-0.0219347
-0.0236114
-0.0253413
-0.0270246
-0.0286232
-0.030134
-0.0315544
-0.0328751
-0.0340855
-0.0351759
-0.0361371
-0.0369609
-0.0376394
-0.0381656
-0.0385332
-0.0387373
-0.0387737
-0.03864
-0.0383345
-0.0378575
-0.0372101
-0.0363953
-0.0354173
-0.0342816
-0.032995
-0.0315654
-0.0300019
-0.0283142
-0.0265125
-0.0246078
-0.0226102
-0.0205323
-0.0183795
-0.0161726
-0.0138931
-0.011607
-0.00918874
-0.00691456
-0.00420312
-0.00215645
-0.01354
-0.0155647
-0.0171453
-0.0187687
-0.0204429
-0.0220816
-0.023651
-0.025148
-0.0265693
-0.0279066
-0.0291496
-0.030289
-0.0313159
-0.0322219
-0.0329989
-0.0336395
-0.034137
-0.0344855
-0.03468
-0.0347169
-0.0345933
-0.0343078
-0.0338603
-0.0332518
-0.0324848
-0.031563
-0.0304915
-0.0292762
-0.0279244
-0.0264441
-0.0248439
-0.0231335
-0.0213217
-0.0194199
-0.017433
-0.01538
-0.0132454
-0.0110882
-0.00879792
-0.00662229
-0.00404036
-0.00204479
-0.00935491
-0.0112585
-0.0127859
-0.0143536
-0.0159693
-0.0175588
-0.0190924
-0.0205669
-0.0219789
-0.0233206
-0.0245825
-0.0257556
-0.0268314
-0.0278015
-0.0286579
-0.0293929
-0.0299994
-0.0304711
-0.0308022
-0.0309881
-0.0310249
-0.0309101
-0.030642
-0.0302203
-0.0296458
-0.0289206
-0.028048
-0.0270323
-0.025879
-0.0245946
-0.023186
-0.0216615
-0.0200287
-0.0182975
-0.0164729
-0.0145716
-0.0125809
-0.0105535
-0.00839246
-0.00632006
-0.00386941
-0.00193594
-0.00556676
-0.00735581
-0.00882939
-0.0103408
-0.0118967
-0.0134343
-0.0149276
-0.0163733
-0.0177682
-0.0191048
-0.0203744
-0.0215686
-0.0226791
-0.0236979
-0.024617
-0.0254287
-0.0261257
-0.0267014
-0.0271494
-0.0274644
-0.0276417
-0.0276777
-0.0275696
-0.0273158
-0.0269157
-0.0263699
-0.0256801
-0.024849
-0.0238807
-0.0227799
-0.0215522
-0.0202042
-0.0187426
-0.017176
-0.0155087
-0.0137559
-0.0119069
-0.0100092
-0.00797732
-0.00601144
-0.00369266
-0.00183007
-0.00214899
-0.00383055
-0.00525103
-0.00670648
-0.00820296
-0.00968748
-0.0111378
-0.0125505
-0.0139224
-0.0152465
-0.0165151
-0.01772
-0.0188535
-0.019908
-0.0208755
-0.0217485
-0.0225198
-0.0231822
-0.0237294
-0.0241552
-0.0244546
-0.0246228
-0.0246563
-0.0245523
-0.0243091
-0.0239258
-0.0234027
-0.0227414
-0.0219441
-0.0210141
-0.0199559
-0.0187746
-0.0174755
-0.0160661
-0.0145503
-0.0129416
-0.0112311
-0.00946146
-0.00755768
-0.00570012
-0.00351257
-0.00172734
0.000922371
-0.000659173
-0.00202809
-0.00342911
-0.00486751
-0.00629925
-0.00770536
-0.00908247
-0.0104273
-0.0117337
-0.0129944
-0.0142019
-0.0153489
-0.0164281
-0.017432
-0.0183531
-0.0191843
-0.0199184
-0.0205488
-0.021069
-0.0214734
-0.0217567
-0.0219146
-0.0219432
-0.0218399
-0.0216027
-0.0212308
-0.020724
-0.0200837
-0.0193116
-0.0184109
-0.0173854
-0.0162394
-0.0149792
-0.013608
-0.0121379
-0.0105614
-0.00891706
-0.0071389
-0.00538987
-0.00333163
-0.00162801
0.00366872
0.00217945
0.000859815
-0.000489091
-0.00187175
-0.00325205
-0.00461401
-0.00595433
-0.00726979
-0.00855475
-0.00980252
-0.0110063
-0.0121593
-0.0132544
-0.0142846
-0.0152426
-0.0161214
-0.0169139
-0.0176134
-0.0182131
-0.0187072
-0.0190898
-0.0193559
-0.019501
-0.0195216
-0.0194147
-0.0191784
-0.0188115
-0.0183139
-0.0176865
-0.016931
-0.0160501
-0.0150469
-0.0139267
-0.0126922
-0.0113541
-0.00990603
-0.00838287
-0.00672655
-0.00508466
-0.00315241
-0.0015325
0.00610887
0.00470389
0.00343067
0.00213088
0.000800868
-0.000530259
-0.00184921
-0.00315277
-0.00443779
-0.00569909
-0.0069306
-0.00812607
-0.00927911
-0.0103831
-0.0114314
-0.012417
-0.013333
-0.0141724
-0.0149285
-0.0155947
-0.0161644
-0.0166319
-0.0169914
-0.0172379
-0.0173672
-0.0173754
-0.0172597
-0.0170181
-0.0166493
-0.016153
-0.0155299
-0.0147817
-0.0139105
-0.0129204
-0.0118138
-0.0105999
-0.00927346
-0.00786602
-0.00632638
-0.00478859
-0.00297758
-0.00144142
0.00825896
0.00693014
0.00569995
0.0044457
0.00316459
0.00187957
0.000601559
-0.000666324
-0.00192099
-0.0031577
-0.00437095
-0.00555497
-0.00670383
-0.00781136
-0.00887114
-0.00987658
-0.010821
-0.0116976
-0.0124997
-0.0132205
-0.0138536
-0.0143927
-0.014832
-0.0151658
-0.0153894
-0.0154983
-0.0154888
-0.0153581
-0.0151041
-0.0147254
-0.0142218
-0.0135939
-0.0128431
-0.0119725
-0.0109838
-0.00988526
-0.00867242
-0.00737385
-0.00594434
-0.00450593
-0.00280989
-0.00135554
0.0101324
0.0088714
0.00768043
0.00646766
0.00523111
0.00398847
0.00274854
0.00151435
0.00028892
-0.000923405
-0.0021176
-0.00328835
-0.00443016
-0.00553721
-0.00660346
-0.00762263