/*--------------------------------*- C++ -*----------------------------------*\
  =========                 |
  \\      /  F ield         | OpenFOAM: The Open Source CFD Toolbox
   \\    /   O peration     | Website:  https://openfoam.org
    \\  /    A nd           | Version:  7
     \\/     M anipulation  |
\*---------------------------------------------------------------------------*/
FoamFile
{
    version     2.0;
    format      ascii;
    class       volVectorField;
    location    "15";
    object      U;
}
// * * * * * * * * * * * * * * * * * * * * * * * * * * * * * * * * * * * * * //

dimensions      [0 1 -1 0 0 0 0];

internalField   nonuniform List<vector> 
6386
(
(-0.00130097 0.00111625 3.78366e-21)
(-0.00719228 0.0025648 1.32601e-20)
(-0.0182197 0.00343843 -4.9312e-21)
(-0.0313384 0.00389236 3.4817e-21)
(-0.0454656 0.00404137 -2.53553e-20)
(-0.059763 0.00399356 -1.08908e-20)
(-0.0736855 0.00384852 -2.31936e-21)
(-0.087049 0.0036979 -3.4126e-20)
(-0.0999502 0.00361987 4.44376e-21)
(-0.112709 0.00369241 2.09704e-20)
(-0.00145704 0.00333978 -3.46469e-20)
(-0.00749825 0.00767198 -7.10836e-21)
(-0.0185232 0.010281 2.1131e-20)
(-0.0315393 0.0116299 -7.90882e-20)
(-0.0454807 0.0120624 -9.81983e-21)
(-0.0595167 0.0119017 1.45312e-20)
(-0.0731017 0.0114453 5.2077e-21)
(-0.0860469 0.010967 9.45643e-20)
(-0.0984342 0.0107023 -6.84334e-20)
(-0.110522 0.0108855 1.13197e-20)
(-0.00176486 0.00549925 6.65869e-20)
(-0.00810365 0.0126454 -9.01984e-21)
(-0.0191259 0.0169549 3.61956e-20)
(-0.0319411 0.0191809 8.10572e-20)
(-0.0455154 0.019886 1.6569e-19)
(-0.0590344 0.0196006 -1.19724e-19)
(-0.0719511 0.0188143 3.08862e-22)
(-0.0840672 0.0179813 -9.20847e-20)
(-0.0954392 0.017498 1.17123e-19)
(-0.106198 0.0177581 -1.11281e-19)
(-0.00221562 0.00755545 7.52964e-21)
(-0.00899449 0.0174016 -5.4047e-21)
(-0.0200178 0.0233536 4.06206e-20)
(-0.0325402 0.0264265 -5.83584e-20)
(-0.0455749 0.0273856 -4.42531e-20)
(-0.0583312 0.0269559 2.10602e-19)
(-0.0702602 0.0258097 -6.45695e-20)
(-0.0811499 0.0245776 -1.85565e-19)
(-0.0910276 0.0238235 -6.1121e-20)
(-0.0998118 0.024106 8.25202e-20)
(-0.00279687 0.00947412 1.27244e-20)
(-0.0101506 0.0218658 5.29133e-20)
(-0.0211834 0.0293792 -1.12781e-19)
(-0.0333303 0.0332556 1.31938e-19)
(-0.0456638 0.0344421 8.69833e-20)
(-0.0574247 0.0338411 -3.24352e-19)
(-0.0680616 0.0322942 2.75335e-19)
(-0.0773438 0.0306025 1.65633e-19)
(-0.0852777 0.0295061 5.6606e-20)
(-0.0914542 0.0297378 -1.83041e-20)
(-0.00349344 0.0112273 -9.22313e-20)
(-0.0115465 0.0259734 -4.13241e-20)
(-0.0226017 0.0349446 3.548e-20)
(-0.0342997 0.0395672 -2.92648e-19)
(-0.0457822 0.0409463 1.42052e-19)
(-0.0563285 0.0401404 -3.60549e-20)
(-0.0653842 0.0381427 1.96489e-21)
(-0.072693 0.0359162 3.17815e-20)
(-0.0782668 0.034388 -7.07297e-20)
(-0.081194 0.0344772 -3.94806e-20)
(-0.00428842 0.0127943 2.0266e-19)
(-0.0131524 0.0296728 -2.28682e-20)
(-0.0242456 0.0399757 1.39207e-19)
(-0.0354289 0.045273 4.7661e-20)
(-0.0459205 0.0468013 -4.09379e-20)
(-0.0550444 0.0457512 -3.21941e-20)
(-0.0622418 0.0432458 -2.24085e-20)
(-0.0672184 0.0403977 -6.18093e-20)
(-0.0700482 0.0383292 3.36825e-20)
(-0.0690386 0.0381651 2.60888e-19)
(-0.00516425 0.0141618 -2.15352e-19)
(-0.0149351 0.0329252 1.38495e-19)
(-0.0260814 0.0444127 -2.54895e-19)
(-0.036688 0.0502982 2.98362e-20)
(-0.0460534 0.0519242 7.16971e-20)
(-0.0535517 0.0505873 2.63781e-19)
(-0.0586172 0.0475142 -1.22448e-19)
(-0.0608954 0.0439496 2.05392e-19)
(-0.0606231 0.0412104 -1.39064e-19)
(-0.0548856 0.040677 -1.80022e-19)
(-0.00610363 0.0153241 1.77847e-19)
(-0.016859 0.0357053 -8.51422e-20)
(-0.0280678 0.04821 -2.0867e-19)
(-0.0380326 0.0545825 1.92635e-20)
(-0.0461328 0.0562475 -3.58288e-19)
(-0.0517954 0.0545806 -2.16981e-20)
(-0.0544446 0.0508824 1.59987e-20)
(-0.0536256 0.0465039 -1.02874e-19)
(-0.0498966 0.0429308 2.37963e-19)
(-0.0385052 0.0420114 9.52287e-20)
(-0.00709037 0.0162819 -1.3871e-19)
(-0.0188866 0.0379997 -2.12772e-19)
(-0.0301545 0.0513359 5.38059e-19)
(-0.0394001 0.0580798 1.97406e-19)
(-0.0460795 0.059719 6.35409e-20)
(-0.0496725 0.0576829 1.37905e-19)
(-0.0495893 0.0533132 -1.55132e-19)
(-0.0452107 0.048032 2.44532e-20)
(-0.037572 0.043387 -3.89228e-19)
(-0.0196311 0.0423942 3.60615e-20)
(-0.00810994 0.0170416 3.74855e-20)
(-0.0209786 0.0398058 1.04282e-19)
(-0.0322813 0.0537711 -7.04123e-19)
(-0.040705 0.0607572 -9.79505e-20)
(-0.0457749 0.0623018 9.66696e-20)
(-0.0470171 0.0598666 -4.50762e-19)
(-0.043824 0.0548031 -1.42018e-20)
(-0.0353526 0.04857 -1.019e-20)
(-0.0230191 0.0425181 -1.42865e-19)
(0.00221111 0.0416867 2.16014e-20)
(-0.0091497 0.0176135 -3.78781e-20)
(-0.0230937 0.041129 1.86012e-19)
(-0.0343753 0.0555066 4.66416e-19)
(-0.041835 0.0625934 -2.24868e-19)
(-0.0450525 0.0639723 1.70122e-20)
(-0.043585 0.0611233 -1.71193e-19)
(-0.0367921 0.0553819 -4.33271e-20)
(-0.0236282 0.0482138 4.06394e-19)
(-0.00559687 0.0405201 3.296e-19)
(0.0286744 0.0398729 -4.14333e-20)
(-0.0101988 0.0180106 4.09256e-20)
(-0.0251879 0.0419806 7.91227e-20)
(-0.0363496 0.0565417 -4.16105e-19)
(-0.0426462 0.0635767 1.63658e-19)
(-0.0436907 0.064718 1.7263e-19)
(-0.0390451 0.06146 5.9748e-19)
(-0.0279891 0.0551086 3.2104e-19)
(-0.00930035 0.0470863 -1.60581e-19)
(0.0155073 0.0377092 -4.23475e-20)
(0.0612181 0.0374022 -2.06639e-19)
(-0.0112479 0.0182466 2.76387e-19)
(-0.0272131 0.0423752 -4.08506e-19)
(-0.0381001 0.0568817 6.17887e-19)
(-0.0429589 0.0637036 -2.15238e-19)
(-0.0414064 0.0645367 -2.14568e-19)
(-0.0329699 0.0608955 -6.67904e-19)
(-0.0167906 0.0540602 -4.36098e-19)
(0.00857358 0.045355 2.40592e-19)
(0.0416058 0.0342904 3.58006e-19)
(0.101393 0.0350981 3.72279e-19)
(-0.012288 0.018335 -2.42276e-19)
(-0.0291149 0.0423283 -1.01463e-19)
(-0.0395027 0.0565359 1.37813e-20)
(-0.0425535 0.0629779 2.67155e-20)
(-0.0378503 0.0634367 5.56307e-19)
(-0.0248294 0.0594608 2.1944e-20)
(-0.00242177 0.0523365 4.24609e-19)
(0.0310539 0.0432699 -3.78614e-19)
(0.0743578 0.0305583 -7.3579e-19)
(0.150773 0.0339702 -3.56343e-19)
(-0.0308298 0.0418542 6.27845e-19)
(-0.0404086 0.0555166 9.70916e-21)
(-0.0411675 0.0614168 -3.33453e-19)
(-0.0326025 0.0614397 2.05025e-19)
(-0.0139929 0.0572023 -3.46549e-19)
(0.0160353 0.050055 -7.13657e-20)
(0.059316 0.0410835 1.78577e-19)
(0.115667 0.0270016 2.25224e-19)
(0.210403 0.0351105 1.74931e-19)
(-0.032282 0.0409646 -3.09847e-19)
(-0.0406417 0.0538466 -2.82862e-19)
(-0.0384875 0.0590483 -3.87939e-20)
(-0.0251709 0.0585872 1.9322e-19)
(0.000267702 0.0541938 6.53936e-19)
(0.0396135 0.0473645 5.3401e-19)
(0.0945951 0.0390243 7.78984e-20)
(0.167543 0.0244226 6.48433e-19)
(0.279987 0.0395443 2.90867e-19)
(-0.0333776 0.0396714 5.65227e-19)
(-0.0399933 0.0515535 1.40606e-19)
(-0.0341471 0.0559155 5.62763e-19)
(-0.014987 0.0549572 -2.07722e-19)
(0.0187699 0.050556 -6.43424e-19)
(0.0694243 0.0444656 -3.243e-19)
(0.138146 0.0372791 -3.66801e-19)
(0.231802 0.0241801 -7.87507e-19)
(0.357036 0.0480631 -9.80697e-20)
(-0.038212 0.0486679 -3.79622e-19)
(-0.0277231 0.052092 -2.46387e-19)
(-0.00140779 0.0506747 -9.84255e-20)
(0.0424058 0.0464786 -2.45827e-20)
(0.106596 0.0416315 1.00139e-19)
(0.191269 0.0360213 1.61429e-19)
(0.309577 0.0282173 2.75276e-19)
(0.4373 0.0600021 -4.64684e-19)
(-0.0350067 0.0452353 1.96707e-19)
(-0.0187326 0.0476839 3.21781e-19)
(0.016275 0.0459248 -2.11413e-19)
(0.0721076 0.0422423 5.09856e-19)
(0.152145 0.0392252 -1.73216e-19)
(0.255187 0.0356095 -8.63869e-20)
(0.400307 0.0379836 1.38318e-20)
(0.518195 0.0691992 1.50975e-19)
(-0.00663897 0.0428342 -2.37435e-19)
(0.0388148 0.0409614 1.90379e-19)
(0.108791 0.0382359 -1.69703e-19)
(0.206827 0.0377218 7.11392e-19)
(0.330471 0.0369047 -1.87668e-19)
(0.499585 0.0518313 3.85294e-19)
(0.605005 0.0663217 -1.87305e-19)
(0.0669759 0.0361091 -4.1446e-19)
(0.153279 0.034959 -5.49262e-19)
(0.271045 0.0377298 -5.4272e-19)
(0.416392 0.0411844 7.45616e-20)
(0.599429 0.0639978 2.68249e-19)
(0.727571 0.0673905 -7.13242e-20)
(0.101482 0.0317565 7.76596e-19)
(0.206179 0.0329931 5.83802e-19)
(0.344724 0.0399344 1.14975e-19)
(0.510638 0.0492447 -2.89057e-21)
(0.701274 0.0764894 -7.09433e-20)
(0.845999 0.0828279 1.02522e-18)
(0.267734 0.0329504 -6.69938e-19)
(0.42704 0.0449825 2.80385e-19)
(0.609866 0.0610118 1.28636e-19)
(0.802302 0.0912088 -8.86611e-19)
(0.949214 0.101869 -1.53694e-19)
(0.516192 0.0533284 -2.88229e-19)
(0.7102 0.0759494 3.09092e-19)
(0.897569 0.107954 2.18842e-20)
(1.03716 0.121335 -1.58434e-19)
(0.807542 0.0933144 1.07148e-19)
(0.983332 0.12582 9.4305e-20)
(1.10822 0.140082 -8.31792e-20)
(1.05721 0.143885 1.4785e-19)
(1.16354 0.157347 4.24262e-19)
(1.20499 0.17295 -1.6648e-19)
(1.11873 -0.161475 -1.03395e-19)
(1.20527 -0.17298 -6.62783e-19)
(1.05753 -0.14392 -1.06286e-19)
(1.16383 -0.157376 6.65193e-19)
(0.807836 -0.0933444 -5.277e-19)
(0.983647 -0.125852 4.22701e-19)
(1.10852 -0.14011 -1.68738e-19)
(0.516394 -0.053345 -8.1823e-20)
(0.710469 -0.0759734 9.15299e-20)
(0.897875 -0.107982 -6.64606e-20)
(1.03748 -0.12136 -4.14665e-20)
(0.267835 -0.0329606 -2.08325e-19)
(0.427208 -0.0449958 2.96434e-19)
(0.610104 -0.0610301 3.74387e-19)
(0.802592 -0.0912315 -7.99046e-19)
(0.94953 -0.101889 -3.01271e-19)
(0.101516 -0.0317694 -2.04611e-19)
(0.206256 -0.0330044 7.80766e-19)
(0.344859 -0.0399462 -8.97821e-20)
(0.510842 -0.0492581 8.7467e-21)
(0.70154 -0.076507 3.21333e-19)
(0.846305 -0.0828412 5.14969e-19)
(0.0669983 -0.0361253 -6.02942e-19)
(0.153336 -0.0349725 -3.37672e-19)
(0.271152 -0.0377419 -6.22641e-19)
(0.416561 -0.0411944 -1.6292e-19)
(0.599666 -0.0640115 3.39987e-19)
(0.727852 -0.0673936 -5.45481e-20)
(-0.00664339 -0.0428556 8.57601e-20)
(0.0388283 -0.040981 -5.8997e-20)
(0.108833 -0.0382524 8.77151e-20)
(0.206911 -0.0377354 7.95908e-19)
(0.330607 -0.0369135 -9.53621e-20)
(0.499793 -0.051841 -1.61443e-20)
(0.60525 -0.066317 -1.68416e-19)
(-0.0350213 -0.0452587 3.29346e-19)
(-0.0187403 -0.0477087 -1.25771e-19)
(0.0162816 -0.0459479 8.68269e-20)
(0.0721371 -0.0422619 5.26787e-19)
(0.152209 -0.0392408 -5.01944e-19)
(0.255294 -0.0356194 3.67954e-19)
(0.400481 -0.0379878 -3.84268e-19)
(0.518424 -0.0691967 1.68889e-19)
(-0.0382275 -0.048694 -5.60771e-19)
(-0.0277334 -0.0521198 -2.69892e-19)
(-0.00140655 -0.0507009 1.50931e-20)
(0.0424254 -0.046501 -5.17417e-20)
(0.106642 -0.0416491 2.28983e-19)
(0.191351 -0.0360328 -7.53005e-20)
(0.309714 -0.0282167 3.48462e-19)
(0.437504 -0.0599995 -4.49658e-19)
(-0.0333927 -0.0396933 -1.8038e-19)
(-0.0400096 -0.051582 6.12261e-19)
(-0.0341594 -0.0559459 2.65417e-19)
(-0.0149901 -0.0549858 8.08746e-20)
(0.0187813 -0.0505805 -6.88567e-19)
(0.0694572 -0.0444845 -5.26062e-19)
(0.138208 -0.0372914 -3.56603e-19)
(0.231906 -0.0241764 -7.03043e-19)
(0.357211 -0.0480574 -3.4278e-19)
(-0.0322971 -0.0409883 -4.54144e-19)
(-0.0406586 -0.0538772 -1.43246e-19)
(-0.0385015 -0.0590806 6.59953e-20)
(-0.0251777 -0.0586175 -5.64009e-20)
(0.000272219 -0.0542194 8.68625e-19)
(0.0396345 -0.0473838 4.44979e-19)
(0.0946395 -0.0390358 2.31807e-19)
(0.167619 -0.0244169 4.31009e-19)
(0.280128 -0.0395338 1.45076e-19)
(-0.013317 -0.0182989 -8.87168e-20)
(-0.0308449 -0.0418795 5.90837e-19)
(-0.0404259 -0.0555488 -3.9122e-20)
(-0.0411829 -0.0614505 -2.2955e-19)
(-0.0326124 -0.0614708 1.0959e-19)
(-0.0139943 -0.057228 -1.39066e-19)
(0.0160463 -0.0500734 -3.62873e-19)
(0.059345 -0.0410929 1.41951e-19)
(0.115718 -0.0269938 4.40951e-19)
(0.21051 -0.0350947 2.10409e-20)
(-0.0122953 -0.0183473 -1.15105e-19)
(-0.0291299 -0.042355 -1.98526e-19)
(-0.0395202 -0.0565693 -2.05605e-19)
(-0.0425699 -0.0630122 1.15736e-19)
(-0.037863 -0.0634677 4.05044e-19)
(-0.0248359 -0.0594856 4.19555e-19)
(-0.00241938 -0.052353 1.47282e-19)
(0.0310697 -0.0432763 -4.83542e-19)
(0.0743894 -0.0305478 -4.07015e-19)
(0.150847 -0.0339489 -4.3864e-19)
(-0.0112551 -0.0182596 3.37404e-19)
(-0.0272278 -0.0424029 -4.23038e-19)
(-0.0381177 -0.0569158 2.79438e-19)
(-0.0429762 -0.0637378 2.46236e-19)
(-0.0414212 -0.0645668 -5.47939e-19)
(-0.0329808 -0.0609185 -4.77249e-19)
(-0.0167955 -0.0540739 -5.73772e-19)
(0.00857813 -0.0453576 2.12946e-19)
(0.041621 -0.0342762 2.20592e-19)
(0.10144 -0.0350716 6.20304e-19)
(-0.0102058 -0.0180242 -2.41524e-19)
(-0.0252021 -0.042009 1.01523e-19)
(-0.0363669 -0.056576 -3.2153e-19)
(-0.042664 -0.0636104 2.60382e-19)
(-0.0437074 -0.0647466 3.85322e-20)
(-0.0390594 -0.0614806 7.41629e-19)
(-0.0279999 -0.0551188 3.48128e-19)
(-0.00930496 -0.0470845 -1.83217e-19)
(0.0155091 -0.0376908 -7.46819e-20)
(0.0612419 -0.0373705 5.10776e-21)
(-0.00915632 -0.0176276 -1.06634e-19)
(-0.0231072 -0.0411577 2.6708e-19)
(-0.0343921 -0.0555406 3.38281e-19)
(-0.041853 -0.0626259 -3.5733e-20)
(-0.0450704 -0.0639988 -3.31569e-19)
(-0.043602 -0.0611408 -2.75464e-21)
(-0.0368075 -0.0553883 1.07974e-19)
(-0.0236399 -0.0482072 2.12946e-19)
(-0.00560581 -0.0404972 4.01073e-19)
(0.0286802 -0.0398362 -1.16645e-20)
(-0.00811612 -0.017056 -3.82504e-20)
(-0.0209913 -0.0398345 1.95037e-20)
(-0.0322974 -0.0538044 -5.23585e-19)
(-0.0407228 -0.0607882 -2.03872e-19)
(-0.0457934 -0.0623259 7.41369e-20)
(-0.0470359 -0.0598809 -4.78661e-19)
(-0.0438427 -0.0548055 2.3506e-19)
(-0.0353698 -0.0485587 -3.11166e-19)
(-0.0230365 -0.0424908 -1.41056e-19)
(0.00220444 -0.0416444 2.17703e-19)
(-0.00709604 -0.0162964 -1.03379e-19)
(-0.0188984 -0.0380282 -1.63695e-19)
(-0.0301698 -0.0513683 5.53836e-19)
(-0.0394173 -0.058109 8.16196e-20)
(-0.0460981 -0.0597405 3.62317e-19)
(-0.0496923 -0.0576938 -4.09183e-20)
(-0.04961 -0.0533116 -7.41077e-20)
(-0.0452318 -0.0480161 -9.61014e-20)
(-0.0375949 -0.043355 -3.75842e-19)
(-0.0196452 -0.042345 -8.46805e-20)
(-0.00610872 -0.0153385 1.33176e-19)
(-0.0168697 -0.0357333 -1.85198e-19)
(-0.0280819 -0.0482411 -2.52307e-20)
(-0.038049 -0.0546097 -5.18656e-20)
(-0.046151 -0.0562663 -3.42871e-19)
(-0.0518154 -0.0545882 -9.30686e-22)
(-0.0544663 -0.0508769 -9.74149e-20)
(-0.0536487 -0.0464836 5.1861e-20)
(-0.0499221 -0.0428938 2.32946e-19)
(-0.0385271 -0.0419552 6.91678e-20)
(-0.00516874 -0.0141761 -2.45569e-19)
(-0.0149446 -0.0329526 1.99004e-19)
(-0.0260943 -0.0444424 -2.47038e-19)
(-0.0367032 -0.0503234 1.26373e-20)
(-0.0460707 -0.0519403 1.35987e-20)
(-0.0535711 -0.0505917 3.1764e-19)
(-0.0586388 -0.047505 -6.32909e-20)
(-0.0609192 -0.0439251 -1.70726e-20)
(-0.0606498 -0.0411688 8.47717e-20)
(-0.0549128 -0.0406157 -3.92301e-19)
(-0.00429229 -0.0128083 2.62642e-19)
(-0.0131606 -0.0296993 -1.45317e-19)
(-0.024257 -0.040004 1.46827e-19)
(-0.0354426 -0.0452961 8.21292e-20)
(-0.0459364 -0.0468148 3.19667e-20)
(-0.0550625 -0.0457526 -7.60055e-20)
(-0.0622624 -0.0432332 -1.03551e-19)
(-0.0672416 -0.0403694 -1.12616e-19)
(-0.0700745 -0.0382832 2.0168e-19)
(-0.0690676 -0.038099 1.47086e-19)
(-0.00349667 -0.0112411 -6.86003e-20)
(-0.0115535 -0.0259991 3.53521e-20)
(-0.0226115 -0.0349715 2.05002e-20)
(-0.0343117 -0.0395884 -2.64062e-19)
(-0.0457964 -0.0409575 5.2649e-20)
(-0.0563449 -0.0401391 5.25341e-20)
(-0.065403 -0.0381271 -1.09563e-19)
(-0.0727144 -0.0358845 5.74157e-20)
(-0.0782914 -0.034338 -4.63369e-20)
(-0.0812221 -0.0344064 -9.60882e-20)
(-0.00279949 -0.00948765 -5.59828e-20)
(-0.0101563 -0.0218906 2.07729e-20)
(-0.0211916 -0.0294048 -4.44538e-20)
(-0.0333405 -0.033275 1.44108e-19)
(-0.0456759 -0.0344513 -3.11587e-20)
(-0.0574388 -0.0338375 -2.22551e-19)
(-0.0680779 -0.032276 1.41256e-19)
(-0.0773626 -0.0305677 2.43934e-19)
(-0.0852995 -0.0294526 7.92226e-20)
(-0.0914795 -0.0296629 -2.18207e-21)
(-0.00221763 -0.00756871 -1.64855e-20)
(-0.00899891 -0.0174258 5.79911e-20)
(-0.0200242 -0.0233781 -1.14901e-19)
(-0.0325483 -0.0264445 4.25953e-20)
(-0.0455846 -0.0273931 -7.09927e-20)
(-0.0583426 -0.0269504 1.80264e-19)
(-0.0702735 -0.0257894 -9.66952e-20)
(-0.0811652 -0.0245405 -8.75324e-20)
(-0.0910455 -0.0237672 -1.40332e-19)
(-0.099833 -0.0240277 1.3054e-19)
(-0.00176628 -0.00551226 6.16702e-20)
(-0.0081068 -0.0126689 -2.99183e-20)
(-0.0191305 -0.0169784 5.19189e-20)
(-0.0319469 -0.0191978 7.06212e-20)
(-0.0455224 -0.0198922 1.58503e-19)
(-0.0590427 -0.0195936 -1.19038e-19)
(-0.0719609 -0.0187923 3.13517e-20)
(-0.0840785 -0.0179423 -9.90333e-20)
(-0.0954525 -0.0174395 9.40536e-20)
(-0.106214 -0.0176771 -8.54762e-20)
(-0.00145788 -0.00335263 -2.03048e-20)
(-0.00750014 -0.00769506 6.97052e-21)
(-0.0185259 -0.0103039 8.07292e-21)
(-0.0315429 -0.011646 -5.90808e-20)
(-0.0454849 -0.0120677 -3.19228e-20)
(-0.0595218 -0.0118938 3.33766e-20)
(-0.0731077 -0.0114222 5.38878e-21)
(-0.0860538 -0.0109267 1.044e-19)
(-0.0984424 -0.0106423 -8.03497e-20)
(-0.110532 -0.0108027 -2.6418e-20)
(-0.00130125 -0.00112901 -3.42929e-21)
(-0.00719291 -0.00258765 1.09114e-20)
(-0.0182207 -0.00346103 -6.80434e-21)
(-0.0313396 -0.00390803 5.26468e-21)
(-0.0454671 -0.00404617 -2.51987e-20)
(-0.0597647 -0.00398509 -6.09905e-21)
(-0.0736875 -0.00382488 -7.96925e-21)
(-0.0870514 -0.003657 -2.54423e-20)
(-0.0999529 -0.00355914 -1.84458e-21)
(-0.112712 -0.00360871 2.7649e-20)
(-0.124489 0.00398764 -1.32056e-21)
(-0.135742 0.00406348 5.23452e-21)
(-0.147433 0.00411505 1.13076e-22)
(-0.159658 0.00417432 -5.48011e-21)
(-0.172471 0.00424422 6.34381e-21)
(-0.185929 0.00432496 -2.44248e-22)
(-0.200092 0.00441344 -1.08753e-21)
(-0.215011 0.00450558 -1.20094e-21)
(-0.230727 0.00459678 1.02742e-21)
(-0.24727 0.0046816 2.33068e-21)
(-0.264647 0.0047534 -2.48098e-21)
(-0.282841 0.00480406 -7.011e-22)
(-0.301797 0.00482372 8.01851e-22)
(-0.321413 0.00480084 5.44273e-22)
(-0.341523 0.00472228 -5.31854e-22)
(-0.361887 0.00457374 1.57597e-22)
(-0.382176 0.00434014 -2.45587e-21)
(-0.401953 0.00400643 1.25822e-21)
(-0.420669 0.00355841 1.16844e-21)
(-0.437646 0.00298389 -1.69077e-21)
(-0.452094 0.0022742 3.03035e-21)
(-0.463113 0.00143007 -5.95821e-23)
(-0.469552 0.000451104 -4.10969e-21)
(-0.470312 -0.000647467 2.64426e-21)
(-0.464316 -0.00185064 1.28572e-21)
(-0.450452 -0.00311302 -2.22207e-21)
(-0.427796 -0.00437785 7.14714e-22)
(-0.395823 -0.00557136 1.13044e-21)
(-0.35425 -0.00664007 -3.628e-26)
(-0.303746 -0.00748963 -6.43135e-22)
(-0.244736 -0.00813066 6.22026e-22)
(-0.179148 -0.00845867 8.02532e-22)
(-0.108124 -0.00864375 -5.90228e-23)
(-0.0324389 -0.00843422 -2.37529e-22)
(0.042005 -0.00831531 8.60467e-23)
(0.124551 -0.00768332 2.11425e-23)
(0.191781 -0.00744456 5.72719e-23)
(0.281699 -0.00660329 -1.19752e-22)
(0.33113 -0.00639816 1.89282e-22)
(0.433251 -0.00559381 3.06901e-22)
(0.456371 -0.00549852 5.3912e-23)
(0.580024 -0.0051309 2.67983e-23)
(-0.121823 0.0117369 -3.74912e-20)
(-0.132819 0.0119399 1.61257e-20)
(-0.144195 0.0120714 3.82995e-21)
(-0.156097 0.0122227 1.46949e-20)
(-0.16858 0.0124023 -8.39338e-21)
(-0.181691 0.0126117 1.40518e-21)
(-0.195488 0.0128428 -9.07694e-21)
(-0.210022 0.0130842 -2.52971e-21)
(-0.225331 0.0133233 -2.27617e-21)
(-0.241443 0.0135453 -3.01518e-21)
(-0.258367 0.0137319 2.18775e-20)
(-0.276085 0.0138608 -2.88956e-20)
(-0.294543 0.0139047 4.88218e-21)
(-0.313639 0.0138315 1.96535e-20)
(-0.33321 0.0136046 -1.75307e-20)
(-0.353017 0.0131836 -3.67206e-22)
(-0.372734 0.0125262 1.50974e-20)
(-0.391929 0.0115894 3.40059e-21)
(-0.410057 0.0103325 -1.24798e-20)
(-0.426448 0.00871934 -2.04907e-21)
(-0.44032 0.00672214 9.13441e-21)
(-0.450784 0.00433889 -1.49056e-21)
(-0.456702 0.00156663 1.59838e-21)
(-0.456999 -0.00156696 1.70398e-22)
(-0.450601 -0.00501316 -5.14013e-21)
(-0.436414 -0.00865575 1.78391e-22)
(-0.413527 -0.0123392 1.5043e-22)
(-0.381437 -0.0158538 3.12248e-21)
(-0.339855 -0.0190479 -8.3887e-22)
(-0.289488 -0.0216395 2.47715e-21)
(-0.230717 -0.0236566 4.62439e-22)
(-0.165534 -0.0247787 -2.5679e-23)
(-0.0949694 -0.0254968 1.59737e-22)
(-0.0199244 -0.0250555 4.45825e-22)
(0.0539377 -0.02487 -1.96685e-22)
(0.135644 -0.0231327 1.02612e-23)
(0.202306 -0.0225622 1.03953e-22)
(0.291215 -0.020114 2.912e-22)
(0.340223 -0.0195974 -1.36412e-22)
(0.441184 -0.017162 1.1662e-22)
(0.464129 -0.0169282 -1.07243e-22)
(0.586436 -0.0157235 -2.44657e-23)
(-0.116561 0.0191357 2.65787e-20)
(-0.127056 0.0194592 -4.85288e-20)
(-0.137818 0.0196754 3.03813e-20)
(-0.149091 0.0199201 6.73837e-21)
(-0.160927 0.0202065 5.38296e-21)
(-0.17336 0.0205392 -2.41718e-20)
(-0.186444 0.0209061 1.44234e-20)
(-0.200224 0.0212897 -2.16311e-20)
(-0.214736 0.0216702 5.20768e-20)
(-0.230006 0.022024 -3.53506e-20)
(-0.246044 0.0223217 1.86611e-20)
(-0.262831 0.0225269 -4.71183e-21)
(-0.280316 0.0225952 4.50292e-21)
(-0.298399 0.0224743 -4.83028e-21)
(-0.316919 0.0221041 -1.68742e-20)
(-0.335643 0.0214188 8.97672e-21)
(-0.35425 0.0203489 -1.31791e-20)
(-0.372316 0.0188239 6.3845e-21)
(-0.389308 0.016777 -4.20193e-21)
(-0.404569 0.0141484 -3.86418e-21)
(-0.417332 0.0108915 8.17431e-21)
(-0.426733 0.00699785 1.28753e-21)
(-0.431656 0.0024675 -3.51864e-22)
(-0.431069 -0.00266188 -5.93211e-21)
(-0.423909 -0.00830858 1.29357e-20)
(-0.409115 -0.0142866 -3.04206e-21)
(-0.385799 -0.0203439 -1.8136e-21)
(-0.3535 -0.026135 3.09054e-21)
(-0.311914 -0.031412 -5.23762e-21)
(-0.261822 -0.0357052 -2.65081e-21)
(-0.203517 -0.0390615 4.0195e-21)
(-0.139112 -0.0409477 -3.57259e-21)
(-0.0694348 -0.0421736 1.36052e-22)
(0.00438886 -0.0414891 3.63079e-22)
(0.0771306 -0.0412129 4.05847e-22)
(0.157231 -0.0383835 -3.75999e-23)
(0.222796 -0.0374654 -2.30914e-22)
(0.309767 -0.0334368 -3.96263e-22)
(0.357957 -0.0325981 -3.2686e-23)
(0.456669 -0.0285641 -7.76794e-22)
(0.479272 -0.0281849 -1.05839e-22)
(0.598954 -0.0261557 -2.55882e-22)
(-0.108825 0.0259744 1.63751e-21)
(-0.118598 0.0264053 -1.86395e-20)
(-0.128478 0.026713 3.4463e-20)
(-0.138842 0.0270536 -9.09182e-21)
(-0.149745 0.0274419 -1.91046e-20)
(-0.1612 0.0278888 4.27631e-20)
(-0.173252 0.0283803 -1.9209e-20)
(-0.18594 0.0288945 -3.7918e-20)
(-0.199298 0.0294058 9.81403e-21)
(-0.213349 0.0298826 1.53275e-21)
(-0.228103 0.0302851 -9.14629e-21)
(-0.243543 0.0305637 2.85202e-20)
(-0.25962 0.0306573 8.00806e-21)
(-0.276238 0.0304935 -1.10656e-20)
(-0.293242 0.0299894 -4.0438e-22)
(-0.310406 0.029054 -1.65755e-20)
(-0.327417 0.027591 3.43319e-20)
(-0.343866 0.0255032 -1.63308e-20)
(-0.359234 0.022698 -2.03854e-20)
(-0.372887 0.0190929 1.35939e-20)
(-0.384079 0.0146225 9.17655e-21)
(-0.391981 0.0092678 -2.0146e-21)
(-0.39551 0.00304026 1.27435e-20)
(-0.393696 -0.00402691 -1.15406e-20)
(-0.38549 -0.0118038 -1.73888e-21)
(-0.369876 -0.0200446 -4.58844e-21)
(-0.345997 -0.0284037 1.86978e-20)
(-0.313454 -0.0364009 -1.13806e-20)
(-0.271912 -0.043694 -4.54869e-21)
(-0.222257 -0.0496261 5.81137e-21)
(-0.164659 -0.0542651 -2.97608e-21)
(-0.101384 -0.056872 1.43803e-21)
(-0.0329958 -0.0585815 -3.97432e-22)
(0.0390926 -0.057601 1.84003e-21)
(0.110226 -0.0572203 -1.04558e-21)
(0.188069 -0.053317 -1.50527e-23)
(0.252063 -0.0520267 3.51694e-22)
(0.336307 -0.0464596 4.93864e-22)
(0.383326 -0.0452814 5.14371e-22)
(0.478857 -0.0397002 8.55877e-22)
(0.500974 -0.0391635 -2.28329e-22)
(0.61691 -0.0363293 2.3947e-22)
(-0.0987636 0.0320772 1.15392e-20)
(-0.107631 0.0325927 4.39399e-20)
(-0.116404 0.0330002 -1.70994e-20)
(-0.125624 0.0334392 -7.1924e-20)
(-0.135349 0.0339228 8.62162e-20)
(-0.145566 0.034471 -4.5981e-21)
(-0.156312 0.0350715 -2.73916e-20)
(-0.167617 0.0357002 2.51926e-20)
(-0.17951 0.0363273 -3.03411e-20)
(-0.192013 0.036915 2.63657e-20)
(-0.205136 0.0374142 -3.27353e-22)
(-0.218865 0.0377626 -2.29403e-20)
(-0.233154 0.0378831 -8.81686e-21)
(-0.247915 0.037684 9.85707e-21)
(-0.263 0.0370599 3.31579e-20)
(-0.278192 0.0358951 -5.02619e-21)
(-0.293194 0.0340673 -4.37599e-20)
(-0.307612 0.031453 2.97453e-20)
(-0.320951 0.0279345 -3.1584e-20)
(-0.332603 0.0234076 8.96238e-21)
(-0.341853 0.0177884 -1.02344e-20)
(-0.347911 0.0110423 1.13595e-20)
(-0.349741 0.00319993 1.52377e-20)
(-0.346448 -0.00572177 1.25238e-20)
(-0.336997 -0.0155342 -2.47283e-20)
(-0.320435 -0.0259409 -1.95882e-21)
(-0.295934 -0.0365062 9.15411e-21)
(-0.263173 -0.0466172 6.34605e-21)
(-0.221771 -0.0558398 -1.54174e-20)
(-0.172743 -0.0633315 -3.80226e-21)
(-0.116101 -0.0691853 -1.96837e-21)
(-0.0542896 -0.0724611 1.87435e-21)
(0.0124492 -0.0745954 -4.71135e-22)
(0.0823694 -0.0733043 -1.36785e-21)
(0.151459 -0.072784 -1.27823e-24)
(0.226527 -0.0678308 2.16941e-22)
(0.288544 -0.0661378 1.44946e-22)
(0.36945 -0.0590875 -4.45327e-22)
(0.414999 -0.0575463 9.37237e-23)
(0.506611 -0.0504852 -1.55824e-21)
(0.528119 -0.0497741 6.13341e-22)
(0.639398 -0.0461596 1.22049e-22)
(-0.086516 0.0373143 1.31109e-20)
(-0.0943505 0.0378768 -1.32295e-19)
(-0.101844 0.0383928 5.66795e-20)
(-0.109738 0.0389322 -2.87326e-21)
(-0.118095 0.0395017 5.42275e-20)
(-0.126872 0.0401349 -2.35056e-20)
(-0.136092 0.0408244 2.45024e-21)
(-0.145778 0.0415467 -4.999e-20)
(-0.155953 0.0422705 5.90847e-20)
(-0.166639 0.0429534 -1.88774e-21)
(-0.177846 0.0435387 -2.27775e-20)
(-0.189564 0.0439525 -1.29169e-20)
(-0.201754 0.0441027 1.59677e-20)
(-0.214336 0.0438786 1.05659e-20)
(-0.227172 0.0431533 3.38255e-20)
(-0.240061 0.0417868 -4.94074e-20)
(-0.252721 0.0396313 -7.71542e-21)
(-0.264782 0.0365379 5.6072e-21)
(-0.275775 0.0323646 -7.94757e-21)
(-0.285126 0.0269856 1.6392e-20)
(-0.292156 0.0202995 1.41645e-20)
(-0.296123 0.0122528 2.42764e-21)
(-0.296044 0.00289811 -4.02072e-20)
(-0.291107 -0.00777053 6.63218e-21)
(-0.280295 -0.019505 2.68627e-20)
(-0.262731 -0.0319592 -1.4238e-20)
(-0.23761 -0.044615 -9.16414e-21)
(-0.204711 -0.0567297 1.91201e-20)
(-0.163584 -0.0677825 -1.55507e-20)
(-0.115392 -0.0767466 1.78405e-20)
(-0.0599622 -0.0837388 5.67414e-21)
(8.55327e-05 -0.0876175 -4.31782e-21)
(0.0648368 -0.0901028 -1.37595e-22)
(0.13223 -0.0885249 -5.10512e-22)
(0.198911 -0.0878121 -5.63747e-23)
(0.270812 -0.0818394 1.90687e-22)
(0.330517 -0.0797112 -6.44599e-22)
(0.40764 -0.0712444 3.91994e-22)
(0.451478 -0.0693125 -1.23687e-21)
(0.538636 -0.0608513 1.63681e-21)
(0.559437 -0.0599443 3.69895e-22)
(0.665373 -0.0555779 -2.55964e-22)
(-0.0721668 0.041618 3.3076e-20)
(-0.0789169 0.0421599 -4.64859e-20)
(-0.0850176 0.0427943 -4.44993e-20)
(-0.0914696 0.0434342 -8.60309e-21)
(-0.0983318 0.0440777 8.72743e-20)
(-0.105527 0.0447753 -1.26305e-19)
(-0.113067 0.0455289 6.5531e-20)
(-0.120964 0.0463192 3.7386e-20)
(-0.129238 0.0471159 1.0303e-20)
(-0.137908 0.0478749 -4.53914e-20)
(-0.146986 0.0485331 4.08313e-20)
(-0.156469 0.0490069 -3.0554e-20)
(-0.166325 0.0491898 7.88181e-21)
(-0.176483 0.0489535 1.33863e-20)
(-0.186823 0.04815 5.62716e-21)
(-0.197159 0.0466158 -7.57021e-20)
(-0.20723 0.0441783 3.67529e-20)
(-0.216694 0.0406637 2.14005e-20)
(-0.225113 0.035906 -4.45757e-20)
(-0.231953 0.0297585 2.12487e-20)
(-0.236577 0.0221025 2.87202e-20)
(-0.23829 0.0128687 8.27087e-21)
(-0.236173 0.00216657 -2.89633e-21)
(-0.229502 -0.0101681 1.41954e-21)
(-0.217278 -0.0236968 4.63176e-21)
(-0.198712 -0.0380634 2.05902e-21)
(-0.173014 -0.052678 6.39236e-21)
(-0.140084 -0.0666711 -1.64345e-20)
(-0.0993892 -0.0794546 3.4928e-22)
(-0.052242 -0.0897948 -7.76127e-21)
(0.00172047 -0.0978313 9.34324e-21)
(0.0597319 -0.10224 -1.13172e-21)
(0.122187 -0.105045 -3.62755e-21)
(0.186755 -0.103166 -3.37011e-21)
(0.250717 -0.102227 1.65657e-21)
(0.319164 -0.0952728 4.59068e-24)
(0.376282 -0.0926788 -4.57606e-22)
(0.449326 -0.0828711 4.25473e-22)
(0.491262 -0.0805196 4.66493e-22)
(0.57361 -0.0707467 1.17723e-22)
(0.59363 -0.0696197 -9.27121e-22)
(0.69375 -0.0645315 4.51404e-22)
(-0.0556928 0.0449935 -1.2134e-19)
(-0.0614103 0.0453916 9.75872e-21)
(-0.0660614 0.0461631 1.56831e-20)
(-0.0710289 0.0468991 5.19915e-20)
(-0.0763427 0.0476006 -7.90728e-20)
(-0.0818883 0.0483373 -2.0492e-20)
(-0.0876638 0.0491254 4.02865e-20)
(-0.0936768 0.049953 -1.22503e-20)
(-0.0999399 0.0507943 -2.62796e-20)
(-0.106472 0.0516057 2.4231e-20)
(-0.113288 0.0523206 6.22404e-21)
(-0.120392 0.0528466 -2.67538e-20)
(-0.12776 0.0530648 3.00186e-20)
(-0.135336 0.0528302 -2.13503e-20)
(-0.143014 0.0519745 2.44105e-22)
(-0.150631 0.0503116 6.94759e-20)
(-0.157952 0.0476446 -5.10393e-20)
(-0.164663 0.0437753 1.81986e-20)
(-0.170363 0.0385139 -1.64809e-20)
(-0.174561 0.0316927 1.94863e-20)
(-0.176668 0.023176 -8.24492e-20)
(-0.176017 0.012876 3.86635e-20)
(-0.171817 0.000930031 3.0684e-20)
(-0.163382 -0.0129005 -8.45362e-21)
(-0.14972 -0.0280734 1.38685e-21)
(-0.130179 -0.0442084 -1.93008e-21)
(-0.103962 -0.0606409 -2.2323e-20)
(-0.0711144 -0.0763834 -2.73378e-21)
(-0.0310142 -0.0907817 3.85739e-21)
(0.0148973 -0.102376 3.41822e-21)
(0.0671533 -0.11136 2.46493e-21)
(0.122875 -0.116257 3.72415e-21)
(0.18275 -0.119348 -4.19833e-22)
(0.244249 -0.117155 4.0014e-21)
(0.305224 -0.115963 -2.3282e-22)
(0.370002 -0.108074 -3.94933e-22)
(0.42431 -0.104988 -2.11139e-22)
(0.493085 -0.0939229 4.95877e-22)
(0.532968 -0.091124 1.46764e-21)
(0.610295 -0.0801339 2.77019e-22)
(0.629475 -0.0787622 -2.34385e-22)
(0.723491 -0.0729831 2.34037e-22)
(-0.0369163 0.0473786 1.4958e-20)
(-0.0417801 0.0475893 -6.85539e-20)
(-0.0449724 0.0485226 3.73904e-20)
(-0.0484965 0.0493348 3.23824e-21)
(-0.052285 0.0500742 -1.58677e-20)
(-0.056188 0.0508195 1.10605e-19)
(-0.0601924 0.0516068 1.51588e-20)
(-0.0643017 0.0524359 -5.78416e-20)
(-0.0685246 0.0532883 -4.66904e-20)
(-0.0728794 0.0541239 6.10229e-20)
(-0.0773854 0.0548747 -5.17193e-20)
(-0.0820515 0.0554419 4.40449e-20)
(-0.0868659 0.0556957 -5.23735e-20)
(-0.0917853 0.0554756 -5.29107e-21)
(-0.0967235 0.0545946 1.28273e-22)
(-0.101539 0.0528447 1.11212e-19)
(-0.106027 0.050005 -1.69902e-20)
(-0.109907 0.0458531 1.46399e-20)
(-0.112818 0.0401758 5.4223e-23)
(-0.114311 0.0327836 -1.22271e-20)
(-0.113852 0.0235233 -2.6169e-21)
(-0.110806 0.0122853 -2.581e-20)
(-0.104491 -0.000847509 5.80334e-20)
(-0.0942689 -0.0159399 1.40712e-20)
(-0.0791823 -0.0325981 -2.86528e-20)
(-0.058702 -0.0503492 1.71324e-20)
(-0.0320184 -0.0684552 -2.62157e-20)
(0.000650579 -0.0858435 2.13766e-20)
(0.0400096 -0.101612 -7.46864e-21)
(0.0845207 -0.114396 5.09791e-21)
(0.134838 -0.124265 -4.06017e-21)
(0.188042 -0.129608 -2.07756e-21)
(0.245088 -0.132938 6.69416e-21)
(0.303306 -0.130431 -1.17809e-21)
(0.361062 -0.128966 6.38901e-22)
(0.422003 -0.120196 2.56141e-22)
(0.473318 -0.116599 4.35449e-22)
(0.537702 -0.104365 -8.69343e-22)
(0.575415 -0.101096 -1.22317e-21)
(0.647613 -0.0889862 -1.13629e-21)
(0.665903 -0.0873468 -9.87251e-22)
(0.753675 -0.0809079 -1.27884e-21)
(-0.0154585 0.0482981 -1.58128e-19)
(-0.0196954 0.048979 1.61113e-19)
(-0.0215637 0.0499446 -1.85927e-19)
(-0.0237687 0.0507999 -1.90121e-20)