/*--------------------------------*- C++ -*----------------------------------*\
  =========                 |
  \\      /  F ield         | OpenFOAM: The Open Source CFD Toolbox
   \\    /   O peration     | Website:  https://openfoam.org
    \\  /    A nd           | Version:  7
     \\/     M anipulation  |
\*---------------------------------------------------------------------------*/
FoamFile
{
    version     2.0;
    format      ascii;
    class       volVectorField;
    location    "15";
    object      U;
}
// * * * * * * * * * * * * * * * * * * * * * * * * * * * * * * * * * * * * * //

dimensions      [0 1 -1 0 0 0 0];

internalField   nonuniform List<vector> 
6386
(
(-0.000752903 0.000595984 1.89103e-21)
(-0.00383438 0.00130725 7.37646e-21)
(-0.00932519 0.00166806 -2.89531e-21)
(-0.0155365 0.00177169 2.1431e-21)
(-0.0217463 0.00168737 -1.63514e-20)
(-0.0274288 0.00147763 -7.28919e-21)
(-0.0322216 0.00119945 -1.61176e-21)
(-0.0359684 0.000904902 -2.41517e-20)
(-0.0386847 0.000635189 3.21179e-21)
(-0.0404012 0.000427605 1.5277e-20)
(-0.000836124 0.00178128 -1.73017e-20)
(-0.00397457 0.00390682 -3.93927e-21)
(-0.00940579 0.00498554 1.24169e-20)
(-0.0154713 0.00529524 -4.88524e-20)
(-0.0214614 0.0050427 -6.35725e-21)
(-0.0268604 0.00441505 9.74811e-21)
(-0.0313143 0.00358294 3.65387e-21)
(-0.0346767 0.00270275 6.7065e-20)
(-0.0369715 0.00189897 -4.93321e-20)
(-0.0381821 0.00128684 8.1425e-21)
(-0.000999295 0.00292765 3.33349e-20)
(-0.00424709 0.00641298 -5.05717e-21)
(-0.00955625 0.00817498 2.13889e-20)
(-0.0153281 0.00866972 5.01207e-20)
(-0.0208778 0.00823854 1.07012e-19)
(-0.0257095 0.00719066 -8.03529e-20)
(-0.0294856 0.00580888 2.88418e-22)
(-0.0320792 0.00435335 -6.51173e-20)
(-0.0335321 0.0030335 8.46333e-20)
(-0.0337303 0.00205184 -8.10269e-20)
(-0.0012357 0.0040102 3.87193e-21)
(-0.00463573 0.00876571 -3.05612e-21)
(-0.00975428 0.011154 2.40441e-20)
(-0.015081 0.0117994 -3.61973e-20)
(-0.0199672 0.0111725 -2.84947e-20)
(-0.0239469 0.00970084 1.41401e-19)
(-0.0267065 0.00777652 -4.49703e-20)
(-0.0281476 0.00576269 -1.31834e-19)
(-0.0283409 0.00395631 -4.42488e-20)
(-0.0270191 0.00266279 6.00028e-20)
(-0.00153546 0.0050055 6.51165e-21)
(-0.00511646 0.0109084 2.99106e-20)
(-0.00996674 0.013845 -6.70525e-20)
(-0.0146907 0.0145938 8.25151e-20)
(-0.0186872 0.0137484 5.64659e-20)
(-0.0215289 0.0118484 -2.18591e-19)
(-0.0229333 0.00939174 1.91012e-19)
(-0.0228393 0.00684319 1.17445e-19)
(-0.0213598 0.00459106 4.10617e-20)
(-0.0180088 0.00306913 -1.31819e-20)
(-0.00188573 0.00589213 -4.72509e-20)
(-0.00565784 0.0127888 -2.3153e-20)
(-0.0101499 0.0161762 2.10232e-20)
(-0.0141055 0.0169702 -1.83208e-19)
(-0.0169812 0.0158783 9.28776e-20)
(-0.0183967 0.0135453 -2.47231e-20)
(-0.0181074 0.0105698 1.48574e-21)
(-0.016096 0.00751553 2.2418e-20)
(-0.0125346 0.004866 -5.16358e-20)
(-0.00665362 0.00324314 -2.89187e-20)
(-0.00227099 0.00665105 1.04937e-19)
(-0.0062214 0.0143605 -1.30727e-20)
(-0.0102498 0.0180838 8.38644e-20)
(-0.0132608 0.0188549 2.95072e-20)
(-0.0147782 0.0174851 -2.63362e-20)
(-0.0144768 0.0147154 -2.22555e-20)
(-0.0121551 0.0112381 -1.57681e-20)
(-0.00784564 0.00771111 -4.47846e-20)
(-0.00178501 0.00470897 2.39689e-20)
(0.00709271 0.00315477 1.90481e-19)
(-0.00267327 0.00726588 -1.12206e-19)
(-0.00676218 0.0155829 8.02683e-20)
(-0.0102027 0.0195128 -1.54642e-19)
(-0.01208 0.0201853 1.87315e-20)
(-0.0119936 0.0185046 4.78563e-20)
(-0.00968019 0.015297 1.79733e-19)
(-0.00498787 0.0113401 -8.5996e-20)
(0.00199215 0.00737958 1.46962e-19)
(0.0109751 0.00408915 -1.01612e-19)
(0.0233373 0.00275305 -1.30866e-19)
(-0.00307242 0.00772309 9.41974e-20)
(-0.00722918 0.0164227 -4.92917e-20)
(-0.00993572 0.0204182 -1.28822e-19)
(-0.0104746 0.0209117 1.20995e-20)
(-0.00852865 0.0188875 -2.37758e-19)
(-0.00390298 0.0152456 -1.43517e-20)
(0.00350015 0.0108384 1.06427e-20)
(0.0135253 0.00649305 -7.36856e-20)
(0.0258306 0.00299367 1.75208e-19)
(0.0421823 0.00201748 6.99142e-20)
(-0.00344638 0.00801202 -7.42342e-20)
(-0.00756592 0.0168538 -1.2619e-19)
(-0.00936727 0.0207657 3.3259e-19)
(-0.0083448 0.0209979 1.26987e-19)
(-0.00427127 0.0186012 4.23937e-20)
(0.00297376 0.014536 9.60907e-20)
(0.0134299 0.00971705 -1.10384e-19)
(0.026874 0.00504198 1.80479e-20)
(0.0428946 0.00140529 -2.86296e-19)
(0.0637278 0.000975219 2.69525e-20)
(-0.00377142 0.0081249 2.01229e-20)
(-0.00771093 0.0168574 6.09415e-20)
(-0.00840794 0.0205327 -4.39888e-19)
(-0.00558035 0.0204227 -6.36624e-20)
(0.000903078 0.0176311 6.53161e-20)
(0.011083 0.0131645 -3.13764e-19)
(0.0249369 0.00798502 -1.06062e-20)
(0.042171 0.00304519 -7.40447e-21)
(0.0622939 -0.000657869 -1.0726e-19)
(0.0880942 -0.000338063 1.54663e-20)
(-0.00402226 0.00805667 -2.16026e-20)
(-0.00759849 0.0164228 1.12513e-19)
(-0.00696119 0.0197082 2.93612e-19)
(-0.00206186 0.0191799 -1.48405e-19)
(0.00713031 0.0159814 1.14145e-20)
(0.0205709 0.0111502 -1.224e-19)
(0.0381705 0.00567909 -3.1388e-20)
(0.0595618 0.000554434 2.97287e-19)
(0.0841639 -0.00314164 2.43177e-19)
(0.115397 -0.00186785 -3.07594e-20)
(-0.0041721 0.00780525 2.13318e-20)
(-0.00715917 0.0155469 4.93812e-20)
(-0.00492497 0.0182927 -2.6695e-19)
(0.00233784 0.0172793 1.08098e-19)
(0.0145558 0.0136756 1.18519e-19)
(0.0315945 0.00853577 4.20799e-19)
(0.0532923 0.00286531 2.32373e-19)
(0.0792041 -0.0023426 -1.16615e-19)
(0.108651 -0.00595163 -3.0725e-20)
(0.145761 -0.00351341 -1.54882e-19)
(-0.00419325 0.00737114 1.58038e-19)
(-0.00632062 0.014234 -2.53625e-19)
(-0.00219294 0.0162993 3.98953e-19)
(0.00775131 0.0147459 -1.44006e-19)
(0.0233316 0.0107559 -1.48829e-19)
(0.0443192 0.00538667 -4.74544e-19)
(0.0704733 -0.000361336 -3.16511e-19)
(0.101265 -0.00552036 1.77996e-19)
(0.135914 -0.00894672 2.65975e-19)
(0.179337 -0.00513431 2.72072e-19)
(-0.00405697 0.00675744 -1.40849e-19)
(-0.0050087 0.0124964 -6.61283e-20)
(0.00134352 0.0137526 9.68258e-21)
(0.0143136 0.0116198 1.79746e-20)
(0.0336127 0.00728176 3.87338e-19)
(0.0589144 0.00178851 1.46758e-20)
(0.0898901 -0.00387969 3.1015e-19)
(0.125919 -0.0088159 -2.82452e-19)
(0.166114 -0.0119354 -5.51194e-19)
(0.21622 -0.00657347 -2.62599e-19)
(-0.00314875 0.0103544 4.01437e-19)
(0.00579277 0.0106891 6.557e-21)
(0.0221583 0.00795481 -2.29272e-19)
(0.0455518 0.00332763 1.46417e-19)
(0.075547 -0.00215706 -2.51678e-19)
(0.111719 -0.00754868 -5.34475e-20)
(0.153342 -0.0120341 1.31564e-19)
(0.199424 -0.0146679 1.68865e-19)
(0.256492 -0.00761203 1.31492e-19)
(-0.000667224 0.0078365 -2.01459e-19)
(0.0112599 0.00715671 -1.90912e-19)
(0.0314132 0.00381818 -2.77469e-20)
(0.0592927 -0.00101962 1.40718e-19)
(0.0943733 -0.00633851 4.77895e-19)
(0.136124 -0.0112182 3.97683e-19)
(0.183705 -0.0149603 6.01964e-20)
(0.236023 -0.0168244 4.93695e-19)
(0.300198 -0.00793661 2.1763e-19)
(0.0025064 0.00497996 3.71446e-19)
(0.0178431 0.0032155 9.52089e-20)
(0.0421944 -0.000710435 3.95291e-19)
(0.0749621 -0.00566359 -1.47079e-19)
(0.115528 -0.0106424 -4.73035e-19)
(0.163252 -0.0147473 -2.43502e-19)
(0.217169 -0.0173793 -2.80177e-19)
(0.276077 -0.017953 -6.01327e-19)
(0.347211 -0.00693146 -6.67025e-20)
(0.0256302 -0.00106231 -2.62707e-19)
(0.0546001 -0.00553887 -1.7545e-19)
(0.0926598 -0.0105005 -7.0103e-20)
(0.13911 -0.0149633 -2.08249e-20)
(0.193214 -0.0180342 7.543e-20)
(0.253916 -0.0191272 1.21876e-19)
(0.319854 -0.0174718 2.11133e-19)
(0.397144 -0.00370362 -3.41771e-19)
(0.0346947 -0.0055913 1.37488e-19)
(0.0687044 -0.0105611 2.31481e-19)
(0.112446 -0.0154183 -1.54452e-19)
(0.165157 -0.0192104 3.84932e-19)
(0.226054 -0.021053 -1.35478e-19)
(0.294171 -0.0202309 -6.80944e-20)
(0.368248 -0.0152751 1.00535e-20)
(0.451033 0.000969825 1.00977e-19)
(0.0845519 -0.015654 -1.73027e-19)
(0.134329 -0.0202893 1.43433e-19)
(0.193611 -0.0232919 -1.27943e-19)
(0.261613 -0.0238407 5.54208e-19)
(0.337735 -0.0210745 -1.47193e-19)
(0.422091 -0.0129102 3.12928e-19)
(0.51681 0.00208111 -1.66732e-19)
(0.158265 -0.0249547 -3.11234e-19)
(0.224305 -0.0270661 -4.22418e-19)
(0.299455 -0.0263567 -4.24139e-19)
(0.383276 -0.0221628 5.78887e-20)
(0.476526 -0.0131891 2.24787e-19)
(0.578518 -0.00446654 -7.26001e-20)
(0.184176 -0.029216 5.91119e-19)
(0.257036 -0.0303024 4.54115e-19)
(0.339131 -0.0283021 8.96986e-20)
(0.429873 -0.0229054 -5.00806e-21)
(0.529758 -0.0136386 -5.563e-20)
(0.635203 -0.00880253 8.84018e-19)
(0.2916 -0.0327162 -5.24871e-19)
(0.3803 -0.0292703 2.24266e-19)
(0.477101 -0.0225458 1.04423e-19)
(0.581802 -0.0126006 -7.46731e-19)
(0.688931 -0.00901253 -1.33111e-19)
(0.422699 -0.0288861 -2.32813e-19)
(0.524748 -0.0205559 2.5566e-19)
(0.63295 -0.00943622 1.76179e-20)
(0.740879 -0.00542679 -1.42147e-19)
(0.572617 -0.0165906 9.01082e-20)
(0.683287 -0.00385506 7.87445e-20)
(0.791284 0.00165152 -7.50672e-20)
(0.732703 0.00425314 1.2889e-19)
(0.840039 0.0119108 3.88765e-19)
(0.886896 0.0249916 -1.51151e-19)
(0.781324 -0.0149135 -9.02945e-20)
(0.887278 -0.0250513 -6.04822e-19)
(0.733035 -0.00429032 -9.2931e-20)
(0.8404 -0.0119573 6.02854e-19)
(0.572881 0.0165751 -4.38541e-19)
(0.683595 0.00382773 3.62762e-19)
(0.791623 -0.00168636 -1.53449e-19)
(0.422889 0.0288841 -6.50192e-20)
(0.524985 0.0205467 7.63974e-20)
(0.633232 0.00941708 -5.93071e-20)
(0.741195 0.00540179 -3.59993e-20)
(0.291725 0.0327203 -1.60928e-19)
(0.380468 0.0292712 2.39014e-19)
(0.477313 0.0225413 3.05458e-19)
(0.582057 0.0125879 -6.71397e-19)
(0.689223 0.00899506 -2.63491e-19)
(0.184248 0.0292201 -1.564e-19)
(0.257142 0.0303066 6.07881e-19)
(0.339277 0.0283045 -7.21929e-20)
(0.43006 0.0229039 5.9488e-21)
(0.529988 0.0136305 2.73637e-19)
(0.63547 0.00878984 4.49282e-19)
(0.158324 0.0249573 -4.54337e-19)
(0.224395 0.0270696 -2.60706e-19)
(0.299581 0.0263596 -4.89287e-19)
(0.383441 0.0221632 -1.31969e-19)
(0.47673 0.0131838 2.84197e-19)
(0.57876 0.0044553 -5.79016e-20)
(0.0845772 0.0156527 6.33724e-20)
(0.134376 0.02029 -4.14315e-20)
(0.193686 0.0232941 6.90566e-20)
(0.26172 0.0238432 6.17173e-19)
(0.337878 0.0210755 -7.70963e-20)
(0.42227 0.0129064 -1.14788e-20)
(0.517025 -0.00209409 -1.52141e-19)
(0.0346999 0.00558629 2.27791e-19)
(0.0687229 0.0105575 -9.01356e-20)
(0.112484 0.0154168 6.67321e-20)
(0.165219 0.0192108 3.96056e-19)
(0.226145 0.0210544 -3.85784e-19)
(0.294293 0.0202318 2.84855e-19)
(0.368404 0.0152726 -2.99384e-19)
(0.451222 -0.00098339 1.15706e-19)
(0.0256321 0.00105535 -3.86691e-19)
(0.0546129 0.00553298 -1.89658e-19)
(0.0926888 0.0104965 1.43368e-20)
(0.13916 0.0149615 -4.02071e-20)
(0.193289 0.0180339 1.72847e-19)
(0.25402 0.0191273 -5.85342e-20)
(0.319987 0.0174698 2.71679e-19)
(0.397309 0.00369161 -3.30923e-19)
(0.00250187 -0.00498757 -1.19521e-19)
(0.0178424 -0.00322434 4.1807e-19)
(0.0422025 0.00070221 1.86837e-19)
(0.0749839 0.00565712 6.13431e-20)
(0.115568 0.0106381 -5.08066e-19)
(0.163314 0.0147449 -3.94109e-19)
(0.217256 0.0173778 -2.69633e-19)
(0.276191 0.0179506 -5.35074e-19)
(0.347355 0.00692075 -2.57864e-19)
(-0.000672513 -0.00784523 -2.95047e-19)
(0.0112571 -0.00716734 -9.67668e-20)
(0.0314175 -0.0038287 4.35864e-20)
(0.0593083 0.00101055 -3.75336e-20)
(0.0944045 0.00633155 6.34522e-19)
(0.136175 0.0112134 3.30348e-19)
(0.183778 0.0149567 1.74205e-19)
(0.236119 0.0168206 3.28417e-19)
(0.300322 0.00792608 1.02795e-19)
(-0.00373714 -0.00597468 -5.33469e-20)
(-0.00315454 -0.0103641 3.77915e-19)
(0.00578843 -0.0107014 -2.51956e-20)
(0.0221594 -0.00796756 -1.57725e-19)
(0.0455623 -0.00333931 7.93449e-20)
(0.0755708 0.0021473 -1.02394e-19)
(0.111759 0.00754102 -2.6806e-19)
(0.153401 0.012028 1.076e-19)
(0.199504 0.0146619 3.32309e-19)
(0.256598 0.00760077 1.30259e-20)
(-0.00406009 -0.0067623 -6.76531e-20)
(-0.00501477 -0.0125071 -1.28684e-19)
(0.00133805 -0.0137665 -1.33585e-19)
(0.0143123 -0.0116347 7.94515e-20)
(0.0336191 -0.00729602 2.83319e-19)
(0.058932 -0.00180113 2.99086e-19)
(0.089922 0.00386908 1.06202e-19)
(0.125967 0.00880693 -3.57919e-19)
(0.166182 0.0119269 -3.05606e-19)
(0.216309 0.00656085 -3.23753e-19)
(-0.00419626 -0.00737624 1.92333e-19)
(-0.00632679 -0.0142455 -2.63858e-19)
(-0.00219918 -0.0163146 1.805e-19)
(0.00774815 -0.0147628 1.64941e-19)
(0.0233347 -0.0107727 -3.80276e-19)
(0.0443317 -0.00540213 -3.39223e-19)
(0.0704979 0.000347698 -4.16799e-19)
(0.101304 0.00550836 1.58594e-19)
(0.13597 0.00893537 1.66924e-19)
(0.179411 0.00511997 4.59987e-19)
(-0.00417497 -0.00781056 -1.37155e-19)
(-0.00716529 -0.0155592 6.39207e-20)
(-0.00493167 -0.0183094 -2.06165e-19)
(0.00233334 -0.0172981 1.71722e-19)
(0.0145563 -0.0136947 2.64013e-20)
(0.0316028 -0.00855401 5.21869e-19)
(0.0533109 -0.00288198 2.50245e-19)
(0.0792353 0.00232748 -1.3486e-19)
(0.108696 0.0059373 -5.60136e-20)
(0.145823 0.00349718 6.28367e-21)
(-0.00402495 -0.00806216 -5.9605e-20)
(-0.00760443 -0.0164357 1.61408e-19)
(-0.00696808 -0.0197261 2.12768e-19)
(-0.00206727 -0.0192004 -2.4574e-20)
(0.00712888 -0.0160027 -2.24562e-19)
(0.0205759 -0.0111711 -3.00024e-21)
(0.0381842 -0.00569872 7.63909e-20)
(0.0595862 -0.000572669 1.55878e-19)
(0.0842005 0.00312418 2.96972e-19)
(0.115448 0.00184871 -8.32445e-21)
(-0.00377392 -0.00813056 -2.10728e-20)
(-0.0077166 -0.0168709 1.06344e-20)
(-0.00841479 -0.0205517 -3.27131e-19)
(-0.00558628 -0.0204448 -1.3261e-19)
(0.000900254 -0.0176545 5.05849e-20)
(0.0110855 -0.0131879 -3.32332e-19)
(0.0249467 -0.00800748 1.66046e-19)
(0.0421898 -0.00306644 -2.26253e-19)
(0.062323 0.000637402 -1.03303e-19)
(0.0881355 0.000316536 1.6229e-19)
(-0.00344868 -0.00801781 -5.52279e-20)
(-0.00757124 -0.0168679 -9.71607e-20)
(-0.00937391 -0.0207857 3.42349e-19)
(-0.00835094 -0.0210216 5.28222e-20)
(-0.00427502 -0.0186266 2.41534e-19)
(0.00297429 -0.0145618 -2.81689e-20)
(0.0134365 -0.00974216 -5.3496e-20)
(0.0268882 -0.00506607 -6.92516e-20)
(0.0429175 -0.0014286 -2.75642e-19)
(0.063761 -0.000998917 -6.27199e-20)
(-0.00307449 -0.007729 7.05646e-20)
(-0.00723407 -0.0164374 -1.07486e-19)
(-0.00994199 -0.020439 -1.66229e-20)
(-0.0104807 -0.0209367 -3.3531e-20)
(-0.00853292 -0.0189147 -2.2759e-19)
(-0.0039038 -0.0152735 -3.82802e-22)
(0.00350432 -0.010866 -6.89044e-20)
(0.0135358 -0.00651975 3.76829e-20)
(0.0258484 -0.00301961 1.70186e-19)
(0.0422086 -0.0020434 5.03197e-20)
(-0.00267511 -0.00727191 -1.27992e-19)
(-0.0067666 -0.0155979 1.15134e-19)
(-0.0102085 -0.0195345 -1.50007e-19)
(-0.0120859 -0.0202115 7.64493e-21)
(-0.0119981 -0.0185333 9.60202e-21)
(-0.0096819 -0.0153268 2.16453e-19)
(-0.00498552 -0.0113698 -4.51364e-20)
(0.00199969 -0.00740862 -1.20734e-20)
(0.0109887 -0.00411743 6.1983e-20)
(0.0233577 -0.00278084 -2.87471e-19)
(-0.00227261 -0.00665717 1.35938e-19)
(-0.0062253 -0.0143758 -8.29958e-20)
(-0.010255 -0.0181062 8.86006e-20)
(-0.0132662 -0.018882 5.14172e-20)
(-0.0147826 -0.0175152 2.13771e-20)
(-0.014479 -0.0147468 -5.2126e-20)
(-0.012154 -0.0112697 -7.19004e-20)
(-0.00784037 -0.0077422 -7.97432e-20)
(-0.00177471 -0.00473925 1.46594e-19)
(0.00710873 -0.00318444 1.0675e-19)
(-0.00188711 -0.00589833 -3.52562e-20)
(-0.00566119 -0.0128045 2.02283e-20)
(-0.0101544 -0.0161991 1.20603e-20)
(-0.0141102 -0.0169982 -1.65402e-19)
(-0.0169852 -0.0159095 3.46707e-20)
(-0.0183991 -0.0135782 3.51676e-20)
(-0.0181072 -0.010603 -7.5863e-20)
(-0.0160924 -0.00754841 4.1426e-20)
(-0.0125269 -0.00489803 -3.35073e-20)
(-0.00664131 -0.00327448 -6.99867e-20)
(-0.00153659 -0.00501176 -2.82607e-20)
(-0.00511923 -0.0109243 1.18605e-20)
(-0.00997051 -0.0138684 -2.65227e-20)
(-0.0146948 -0.0146226 8.9901e-20)
(-0.0186908 -0.0137806 -2.02203e-20)
(-0.0215312 -0.0118825 -1.50041e-19)
(-0.0229336 -0.00942641 9.82569e-20)
(-0.022837 -0.00687759 1.7365e-19)
(-0.0213543 -0.00462464 5.72838e-20)
(-0.0179996 -0.0031018 -1.73704e-21)
(-0.00123658 -0.00401652 -8.15745e-21)
(-0.00463791 -0.00878185 3.25442e-20)
(-0.00975726 -0.0111778 -6.78017e-20)
(-0.0150842 -0.0118287 2.64446e-20)
(-0.0199701 -0.0112055 -4.58698e-20)
(-0.0239489 -0.00973585 1.21151e-19)
(-0.026707 -0.0078123 -6.67619e-20)
(-0.0281462 -0.0057983 -6.22415e-20)
(-0.0283371 -0.00399116 -1.01539e-19)
(-0.0270125 -0.0026966 9.52176e-20)
(-0.000999926 -0.00293401 3.09258e-20)
(-0.00424866 -0.00642926 -1.66529e-20)
(-0.0095584 -0.00819902 3.06416e-20)
(-0.0153305 -0.00869945 4.36521e-20)
(-0.0208799 -0.00827208 1.02381e-19)
(-0.025711 -0.00722639 -7.98583e-20)
(-0.0294861 -0.00584549 2.16123e-20)
(-0.0320783 -0.00438988 -7.02997e-20)
(-0.0335296 -0.00306929 6.79174e-20)
(-0.0337258 -0.00208654 -6.22951e-20)
(-0.000836504 -0.00178766 -1.01532e-20)
(-0.00397552 -0.00392321 3.89136e-21)
(-0.0094071 -0.00500977 4.75338e-21)
(-0.0154727 -0.00532525 -3.65284e-20)
(-0.0214627 -0.00507662 -2.06203e-20)
(-0.0268614 -0.00445125 2.2322e-20)
(-0.0313147 -0.00362011 3.65942e-21)
(-0.0346762 -0.00273989 7.38331e-20)
(-0.0369701 -0.0019354 -5.81084e-20)
(-0.0381796 -0.00132214 -1.91281e-20)
(-0.00075303 -0.000602382 -1.71304e-21)
(-0.0038347 -0.00132368 6.05323e-21)
(-0.00932563 -0.00169239 -3.99703e-21)
(-0.015537 -0.00180185 3.25398e-21)
(-0.0217468 -0.00172148 -1.62298e-20)
(-0.0274292 -0.00151407 -4.07637e-21)
(-0.0322217 -0.0012369 -5.48886e-21)
(-0.0359682 -0.000942347 -1.80103e-20)
(-0.0386842 -0.000671927 -1.33605e-21)
(-0.0404004 -0.000463202 2.0119e-20)
(-0.0417079 0.000397256 -8.80988e-22)
(-0.0427466 0.000208425 3.64275e-21)
(-0.0430768 -6.31487e-05 6.16449e-23)
(-0.0424957 -0.000376263 -3.58438e-21)
(-0.040877 -0.000709515 4.10424e-21)
(-0.0380984 -0.00104379 -1.95028e-22)
(-0.0341028 -0.00136438 -6.79539e-22)
(-0.0288761 -0.00166101 -6.88709e-22)
(-0.0224356 -0.001927 5.85667e-22)
(-0.0148243 -0.00215875 1.1975e-21)
(-0.00610229 -0.00235513 -1.28299e-21)
(0.0036591 -0.0025168 -3.365e-22)
(0.0143828 -0.00264566 3.36717e-22)
(0.02599 -0.00274434 1.8376e-22)
(0.0384024 -0.00281581 -2.57576e-22)
(0.0515449 -0.00286316 4.25826e-24)
(0.0653457 -0.00288936 -8.44636e-22)
(0.0797374 -0.00289724 3.97124e-22)
(0.094657 -0.00288935 3.1701e-22)
(0.110046 -0.00286801 -4.78221e-22)
(0.125849 -0.00283527 6.99319e-22)
(0.142017 -0.00279294 -5.66334e-23)
(0.158502 -0.0027426 -8.72266e-22)
(0.17526 -0.00268564 5.30635e-22)
(0.19225 -0.00262328 2.33859e-22)
(0.209435 -0.00255656 -4.05351e-22)
(0.226779 -0.0024864 1.26063e-22)
(0.244252 -0.00241357 2.00978e-22)
(0.261818 -0.00233881 3.98524e-24)
(0.279461 -0.00226262 -1.23993e-22)
(0.297133 -0.00218572 1.28908e-22)
(0.314857 -0.0021081 2.03307e-22)
(0.332519 -0.0020312 -1.158e-23)
(0.350294 -0.00195318 -1.14534e-22)
(0.367783 -0.00187903 3.2647e-23)
(0.385726 -0.0017996 4.46166e-23)
(0.402677 -0.00173426 -3.36294e-23)
(0.421343 -0.00164615 3.04416e-23)
(0.436705 -0.00160712 -4.45063e-23)
(0.457928 -0.00148362 6.99042e-25)
(0.468583 -0.00152017 -1.59667e-23)
(0.497754 -0.00129871 1.57471e-23)
(-0.0392422 0.00120039 -2.64936e-20)
(-0.0402136 0.000629201 1.12996e-20)
(-0.0404311 -0.000186859 2.59546e-21)
(-0.0397269 -0.00112477 9.53455e-21)
(-0.0379902 -0.00212316 -5.64739e-21)
(-0.0351029 -0.00312438 7.04041e-22)
(-0.0310126 -0.0040844 -5.55207e-21)
(-0.0257085 -0.00497258 -1.39834e-21)
(-0.01921 -0.00576903 -1.12141e-21)
(-0.0115605 -0.00646315 -1.38192e-21)
(-0.00281984 -0.00705153 1.09042e-20)
(0.00694182 -0.00753621 -1.36588e-20)
(0.0176492 -0.00792283 2.54109e-21)
(0.0292253 -0.00821917 8.22718e-21)
(0.0415942 -0.00843405 -6.79861e-21)
(0.0546825 -0.00857658 1.58712e-22)
(0.0684204 -0.00865563 5.13784e-21)
(0.0827421 -0.0086795 8.6261e-22)
(0.0975862 -0.0086558 -3.67043e-21)
(0.112895 -0.00859141 -4.59786e-22)
(0.128616 -0.00849242 2.25484e-21)
(0.144698 -0.00836425 -3.68684e-22)
(0.161095 -0.00821167 3.34829e-22)
(0.177765 -0.00803887 2.49738e-23)
(0.194667 -0.00784952 -9.62895e-22)
(0.211764 -0.00764686 4.62933e-23)
(0.229021 -0.00743374 3.29544e-23)
(0.246406 -0.00721262 5.47313e-22)
(0.263887 -0.00698582 -1.65343e-22)
(0.281445 -0.00675501 4.44606e-22)
(0.299034 -0.00652257 6.57151e-23)
(0.316677 -0.00628864 -4.11579e-23)
(0.334259 -0.00605774 2.4139e-23)
(0.351956 -0.0058245 2.02416e-22)
(0.369369 -0.00560412 -1.4873e-22)
(0.387237 -0.00536918 1.92775e-23)
(0.404116 -0.00517809 -5.26571e-23)
(0.42271 -0.00491996 -6.3675e-23)
(0.438008 -0.00481097 2.93226e-23)
(0.459157 -0.00444912 2.48277e-24)
(0.469763 -0.00457016 3.28233e-23)
(0.498844 -0.00391718 -1.65724e-23)
(-0.034301 0.00192747 1.87669e-20)
(-0.0351391 0.000963655 -3.34373e-20)
(-0.0351324 -0.000393459 2.08803e-20)
(-0.0341836 -0.00194693 4.40087e-21)
(-0.0322131 -0.00359953 3.2918e-21)
(-0.0291109 -0.00525494 -1.50465e-20)
(-0.0248336 -0.00684048 8.8669e-21)
(-0.0193774 -0.00830607 -1.22358e-20)
(-0.0127654 -0.0096193 2.87975e-20)
(-0.00504218 -0.0107632 -1.89775e-20)
(0.00373329 -0.0117324 9.32272e-21)
(0.0134934 -0.0125307 -2.43891e-21)
(0.0241663 -0.0131675 1.84369e-21)
(0.035679 -0.0136556 -2.24337e-21)
(0.0479596 -0.0140095 -6.61828e-21)
(0.0609388 -0.0142442 3.29445e-21)
(0.0745504 -0.0143741 -4.29949e-21)
(0.0887319 -0.014413 2.21006e-21)
(0.103425 -0.0143733 -1.0103e-21)
(0.118574 -0.0142662 -7.74782e-22)
(0.134129 -0.0141018 2.16331e-21)
(0.15004 -0.013889 3.40883e-22)
(0.166264 -0.0136357 -9.01096e-23)
(0.182759 -0.0133487 -1.17174e-21)
(0.199485 -0.0130341 2.42683e-21)
(0.216407 -0.0126974 -5.65103e-22)
(0.233489 -0.0123432 -3.17117e-22)
(0.250701 -0.0119757 5.48994e-22)
(0.268011 -0.0115988 -9.39768e-22)
(0.285401 -0.0112152 -5.35945e-22)
(0.302825 -0.0108291 8.38486e-22)
(0.320305 -0.0104407 -8.35767e-22)
(0.337728 -0.0100576 2.1584e-23)
(0.355269 -0.00967077 1.10049e-22)
(0.372532 -0.00930584 2.91949e-22)
(0.390251 -0.00891693 8.94339e-23)
(0.406989 -0.00860167 1.25465e-22)
(0.425438 -0.00817487 9.09512e-23)
(0.440609 -0.00799744 -6.18488e-24)
(0.461611 -0.00739859 -2.10305e-23)
(0.472119 -0.007605 1.99774e-23)
(0.501022 -0.00652487 -1.68169e-22)
(-0.0268659 0.00253359 1.25469e-21)
(-0.0275088 0.00115767 -1.26661e-20)
(-0.0271684 -0.000735092 2.35151e-20)
(-0.0258575 -0.00288916 -6.15336e-21)
(-0.0235422 -0.00517812 -1.21952e-20)
(-0.0201236 -0.00746651 2.6566e-20)
(-0.0155725 -0.00965449 -1.2057e-20)
(-0.00989526 -0.011674 -2.17862e-20)
(-0.0031202 -0.0134813 5.99303e-21)
(0.00470664 -0.0150541 1.18384e-21)
(0.013528 -0.016386 -4.05495e-21)
(0.0232802 -0.0174825 1.37995e-20)
(0.0338966 -0.018357 3.30598e-21)
(0.0453105 -0.0190272 -4.81475e-21)
(0.0574559 -0.0195131 -1.5395e-22)
(0.0702693 -0.019835 -5.75882e-21)
(0.0836902 -0.0200129 1.15172e-20)
(0.0976608 -0.0200653 -5.32334e-21)
(0.112127 -0.0200093 -5.67371e-21)
(0.127037 -0.0198603 3.77483e-21)
(0.142343 -0.019632 2.1729e-21)
(0.158 -0.0193365 -5.7829e-22)
(0.173966 -0.0189848 2.52307e-21)
(0.190199 -0.0185864 -2.35487e-21)
(0.206663 -0.0181496 -3.046e-22)
(0.223323 -0.0176819 -7.93062e-22)
(0.240145 -0.0171898 3.26731e-21)
(0.2571 -0.0166791 -1.99261e-21)
(0.274156 -0.0161553 -8.43772e-22)
(0.291295 -0.0156222 1.07284e-21)
(0.308473 -0.0150855 -6.30743e-22)
(0.325712 -0.0145455 3.31144e-22)
(0.342899 -0.0140131 -1.49445e-22)
(0.360209 -0.0134756 7.97812e-22)
(0.377247 -0.0129688 -6.83645e-22)
(0.394745 -0.0124285 1.04258e-22)
(0.411273 -0.0119917 -3.06593e-22)
(0.429508 -0.0113985 -1.32419e-22)
(0.444491 -0.0111551 -1.16908e-22)
(0.465273 -0.0103215 -2.371e-24)
(0.475637 -0.0106147 3.6683e-23)
(0.504274 -0.00911462 1.48267e-22)
(-0.0169088 0.00297444 8.36115e-21)
(-0.0173009 0.00116137 3.0361e-20)
(-0.0165193 -0.00125882 -1.20238e-20)
(-0.0147348 -0.00399401 -4.72534e-20)
(-0.0119708 -0.00689465 5.61506e-20)
(-0.00814186 -0.00978657 -3.3312e-21)
(-0.0032386 -0.0125448 -1.66566e-20)
(0.00271972 -0.0150854 1.46079e-20)
(0.00969847 -0.0173555 -1.67769e-20)
(0.0176503 -0.0193285 1.41103e-20)
(0.0265208 -0.020998 -4.24827e-22)
(0.0362519 -0.022372 -1.08625e-20)
(0.0467843 -0.0234674 -3.46182e-21)
(0.0580593 -0.0243068 4.57238e-21)
(0.0700191 -0.0249152 1.28089e-20)
(0.0826079 -0.025318 -2.3311e-21)
(0.095772 -0.0255399 -1.46007e-20)
(0.10946 -0.025604 9.43181e-21)
(0.123624 -0.0255316 -8.8202e-21)
(0.138216 -0.0253417 2.83972e-21)
(0.153192 -0.0250516 -2.12178e-21)
(0.168512 -0.0246765 2.86524e-21)
(0.184134 -0.02423 3.31324e-21)
(0.200022 -0.023724 2.36438e-21)
(0.21614 -0.0231691 -4.67414e-21)
(0.232454 -0.0225747 -3.42324e-22)
(0.248933 -0.0219492 1.59099e-21)
(0.265549 -0.0212998 1.11371e-21)
(0.28227 -0.0206335 -2.69844e-21)
(0.299079 -0.0199551 -6.98991e-22)
(0.315933 -0.0192721 -3.95645e-22)
(0.332854 -0.0185848 4.37123e-22)
(0.349731 -0.0179072 -1.68787e-22)
(0.366737 -0.0172228 -6.48963e-22)
(0.38348 -0.0165781 -2.44798e-22)
(0.400687 -0.0158898 9.77856e-23)
(0.416939 -0.0153351 -1.70588e-22)
(0.434892 -0.0145786 9.31577e-23)
(0.449627 -0.0142727 -5.55707e-25)
(0.470121 -0.0132074 1.95805e-23)
(0.480295 -0.0135894 -1.58676e-22)
(0.508582 -0.0116793 9.01918e-23)
(-0.00439195 0.00318652 8.82471e-21)
(-0.00447995 0.000942098 -9.2131e-20)
(-0.00315633 -0.00200217 3.94768e-20)
(-0.000794906 -0.00529892 -1.62162e-21)
(0.00251246 -0.00877882 3.48052e-20)
(0.00683484 -0.0122372 -1.54184e-20)
(0.012157 -0.0155249 1.14684e-21)
(0.0184442 -0.018545 -2.88309e-20)
(0.0256549 -0.0212381 3.29853e-20)
(0.0337415 -0.0235753 -1.73109e-21)
(0.0426539 -0.0255514 -1.18879e-20)
(0.0523417 -0.0271768 -6.04017e-21)
(0.0627552 -0.0284726 7.2791e-21)
(0.0738455 -0.0294655 4.19252e-21)
(0.0855649 -0.0301851 1.22689e-20)
(0.097867 -0.0306613 -1.87303e-20)
(0.110707 -0.0309228 -2.43567e-21)
(0.12404 -0.0309967 2.00125e-21)
(0.137825 -0.030908 -2.05581e-21)
(0.152021 -0.0306791 4.42136e-21)
(0.166588 -0.0303302 3.28336e-21)
(0.181488 -0.0298793 2.41435e-22)
(0.196686 -0.0293425 -8.45934e-21)
(0.212147 -0.028734 1.40901e-21)
(0.227837 -0.0280665 4.89938e-21)
(0.243725 -0.027351 -2.58178e-21)
(0.259781 -0.0265977 -1.56372e-21)
(0.275978 -0.0258153 3.29659e-21)
(0.292286 -0.0250121 -2.75334e-21)
(0.308689 -0.0241941 3.25369e-21)
(0.325145 -0.0233703 1.22326e-21)
(0.341675 -0.0225409 -9.1195e-22)
(0.35817 -0.0217232 -1.94892e-23)
(0.374802 -0.0208968 -1.73177e-22)
(0.391182 -0.0201191 -7.84744e-23)
(0.408032 -0.0192873 6.26721e-22)
(0.423945 -0.0186193 3.70622e-22)
(0.441551 -0.0177034 -1.8334e-22)
(0.455982 -0.0173394 3.03756e-22)
(0.476123 -0.0160464 1.61484e-24)
(0.486064 -0.0165196 -1.06682e-22)
(0.51392 -0.0142119 -1.77571e-22)
(0.0107356 0.00315986 2.3167e-20)
(0.0110207 0.000490616 -3.3437e-20)
(0.0129533 -0.00299496 -3.04432e-20)
(0.0159894 -0.0068325 -5.16061e-21)
(0.0199251 -0.0108552 5.64143e-20)
(0.0248093 -0.0148349 -7.92294e-20)
(0.030602 -0.0186019 4.06975e-20)
(0.0372498 -0.0220512 2.14155e-20)
(0.044705 -0.0251197 4.72287e-21)
(0.0529213 -0.0277786 -2.47116e-20)
(0.0618554 -0.0300246 2.01685e-20)
(0.0714667 -0.0318716 -1.51315e-20)
(0.0817172 -0.0333442 3.35631e-21)
(0.09257 -0.034473 5.1357e-21)
(0.103989 -0.0352913 1.52725e-21)
(0.115939 -0.0358326 -2.70569e-20)
(0.128384 -0.0361292 1.33364e-20)
(0.141289 -0.0362114 6.8441e-21)
(0.15462 -0.0361071 -1.21663e-20)
(0.168342 -0.0358416 6.34482e-21)
(0.182421 -0.0354378 7.14037e-21)
(0.196824 -0.0349162 1.74052e-21)
(0.211518 -0.0342948 -6.93415e-22)
(0.226473 -0.0335901 2.60411e-22)
(0.241657 -0.0328164 8.22873e-22)
(0.257041 -0.0319867 3.2923e-22)
(0.272598 -0.0311126 1.07512e-21)
(0.288302 -0.030204 -2.80252e-21)
(0.304123 -0.0292708 5.87888e-23)
(0.320048 -0.0283199 -1.50018e-21)
(0.336034 -0.0273618 1.80817e-21)
(0.352105 -0.0263967 -1.68366e-22)
(0.368151 -0.0254452 -8.24015e-22)
(0.384344 -0.0244827 -1.19631e-21)
(0.400297 -0.0235778 1.0099e-21)
(0.416727 -0.0226079 -4.72211e-22)
(0.432242 -0.0218321 6.33468e-22)
(0.449441 -0.0207616 -8.18198e-23)
(0.463516 -0.0203447 -9.44027e-23)
(0.483239 -0.0188286 5.65949e-24)
(0.49291 -0.019396 2.42493e-22)
(0.520257 -0.0167055 2.95916e-22)
(0.0285447 0.00291274 -8.7129e-20)
(0.0292543 -0.000232937 7.51301e-21)
(0.03185 -0.00427138 1.11542e-20)
(0.035654 -0.00861781 3.44262e-20)
(0.0402904 -0.0131413 -5.16447e-20)
(0.0457887 -0.0175879 -1.19522e-20)
(0.0520837 -0.0217752 2.51932e-20)
(0.0591033 -0.0255949 -6.90387e-21)
(0.0667958 -0.0289842 -1.39442e-20)
(0.075119 -0.0319164 1.37768e-20)
(0.0840388 -0.0343918 3.61301e-21)
(0.0935274 -0.0364274 -1.20608e-20)
(0.10356 -0.0380512 1.4109e-20)
(0.114115 -0.0392971 -8.54554e-21)
(0.125168 -0.040201 9.7975e-22)
(0.136696 -0.0407992 2.51604e-20)
(0.148674 -0.0411266 -1.78032e-20)
(0.161078 -0.0412161 5.39316e-21)
(0.173879 -0.0410978 -5.12048e-21)
(0.187051 -0.0407993 4.83339e-21)
(0.200565 -0.0403457 -1.97558e-20)
(0.214394 -0.0397594 9.20028e-21)
(0.228509 -0.0390604 6.37447e-21)
(0.242882 -0.0382669 -1.71889e-21)
(0.257486 -0.037395 2.83212e-22)
(0.272295 -0.036459 -3.61162e-22)
(0.28728 -0.0354721 -3.80175e-21)
(0.30242 -0.0344454 -4.7208e-22)
(0.317686 -0.0333902 6.05148e-22)
(0.333065 -0.0323142 5.83498e-22)
(0.348516 -0.0312295 5.27481e-22)
(0.364063 -0.0301361 8.93985e-22)
(0.379597 -0.029058 -1.91873e-22)
(0.395289 -0.0279663 1.28359e-21)
(0.410758 -0.0269409 -1.68927e-22)
(0.426709 -0.025839 -8.12839e-22)
(0.441771 -0.0249619 1.90664e-22)
(0.458507 -0.0237423 -2.31428e-22)
(0.472177 -0.0232784 -4.14236e-22)
(0.491425 -0.021545 -1.70805e-23)
(0.500791 -0.0222097 3.95962e-23)
(0.527556 -0.0191531 1.51052e-22)
(0.0491162 0.00241948 1.08643e-20)
(0.0502866 -0.00130509 -4.76272e-20)
(0.0536041 -0.00586274 2.70737e-20)
(0.0582524 -0.0106715 3.04888e-21)
(0.0636423 -0.0156436 -9.31253e-21)
(0.0697845 -0.020494 7.00059e-20)
(0.0765885 -0.0250339 7.79053e-21)
(0.0839662 -0.0291579 -3.47989e-20)
(0.0918652 -0.0328073 -2.56238e-20)
(0.100251 -0.0359604 3.31005e-20)
(0.109103 -0.0386213 -2.59441e-20)
(0.118408 -0.0408109 2.15364e-20)
(0.128157 -0.0425597 -2.31348e-20)
(0.138344 -0.0439034 -8.5478e-22)
(0.148959 -0.0448802 1.49945e-21)
(0.159992 -0.0455278 4.06494e-20)
(0.171429 -0.0458828 -6.86347e-21)
(0.183256 -0.0459795 3.67994e-21)
(0.195453 -0.0458499 -8.88846e-22)
(0.208001 -0.0455232 -3.83464e-21)
(0.220877 -0.045026 -7.41824e-22)
(0.234059 -0.0443824 -5.42311e-21)
(0.247523 -0.0436141 1.20866e-20)
(0.261244 -0.0427405 2.26576e-21)
(0.275198 -0.0417794 -5.53363e-21)
(0.289361 -0.0407464 2.86645e-21)
(0.303709 -0.0396559 -4.49207e-21)
(0.318219 -0.0385203 3.60654e-21)
(0.332866 -0.0373521 -1.26611e-21)
(0.347637 -0.0361599 9.56818e-22)
(0.362492 -0.0349572 -7.43524e-22)
(0.377456 -0.0337439 -5.09737e-22)
(0.392421 -0.0325473 1.83324e-21)
(0.407557 -0.0313341 -2.87644e-22)
(0.422487 -0.0301959 3.7978e-22)