/*--------------------------------*- C++ -*----------------------------------*\
  =========                 |
  \\      /  F ield         | OpenFOAM: The Open Source CFD Toolbox
   \\    /   O peration     | Website:  https://openfoam.org
    \\  /    A nd           | Version:  7
     \\/     M anipulation  |
\*---------------------------------------------------------------------------*/
FoamFile
{
    version     2.0;
    format      ascii;
    class       volScalarField;
    location    "5";
    object      p;
}
// * * * * * * * * * * * * * * * * * * * * * * * * * * * * * * * * * * * * * //

dimensions      [0 2 -2 0 0 0 0];

internalField   nonuniform List<scalar> 
8500
(
-0.411315
-0.414936
-0.414319
-0.411375
-0.406459
-0.399778
-0.391625
-0.382308
-0.372038
-0.360853
-0.412424
-0.415848
-0.4151
-0.412037
-0.407011
-0.400231
-0.391986
-0.382594
-0.372244
-0.360876
-0.414637
-0.417666
-0.416657
-0.413357
-0.408113
-0.401133
-0.392703
-0.383159
-0.372651
-0.360915
-0.41794
-0.420378
-0.418981
-0.415326
-0.409754
-0.402476
-0.393769
-0.383996
-0.373249
-0.360955
-0.422312
-0.423969
-0.422056
-0.417931
-0.411924
-0.404248
-0.395173
-0.385092
-0.374023
-0.360975
-0.427729
-0.428416
-0.425862
-0.421154
-0.414607
-0.406437
-0.3969
-0.386431
-0.374955
-0.360946
-0.43416
-0.433694
-0.430378
-0.424975
-0.417785
-0.409026
-0.398934
-0.387996
-0.376023
-0.360833
-0.441569
-0.43977
-0.435574
-0.42937
-0.421438
-0.411997
-0.40126
-0.389767
-0.377203
-0.360594
-0.449917
-0.446609
-0.44142
-0.434312
-0.425543
-0.415331
-0.403861
-0.391727
-0.37847
-0.36018
-0.459155
-0.454171
-0.447879
-0.43977
-0.430076
-0.419011
-0.406721
-0.393861
-0.3798
-0.359537
-0.469236
-0.46241
-0.454913
-0.445714
-0.435014
-0.423021
-0.409831
-0.396156
-0.381173
-0.358605
-0.480103
-0.471276
-0.462477
-0.452107
-0.440331
-0.427344
-0.413184
-0.398611
-0.382575
-0.357321
-0.491691
-0.48071
-0.470523
-0.458912
-0.446002
-0.43197
-0.416781
-0.401232
-0.384001
-0.355622
-0.503927
-0.490648
-0.478996
-0.466088
-0.452
-0.43689
-0.420634
-0.404044
-0.385463
-0.353455
-0.516724
-0.501018
-0.487837
-0.473589
-0.458298
-0.442099
-0.424766
-0.407096
-0.387015
-0.350817
-0.529981
-0.511736
-0.496978
-0.481364
-0.464865
-0.447593
-0.429211
-0.410472
-0.38879
-0.347845
-0.543583
-0.522709
-0.506342
-0.489356
-0.471667
-0.453367
-0.434017
-0.414284
-0.390926
-0.344662
-0.557396
-0.533833
-0.515846
-0.4975
-0.478661
-0.459418
-0.439253
-0.418665
-0.393311
-0.340651
-0.571269
-0.544995
-0.525395
-0.505719
-0.485794
-0.465741
-0.445053
-0.42395
-0.396311
-0.336101
-0.58504
-0.556071
-0.534886
-0.513923
-0.492989
-0.4723
-0.451528
-0.430805
-0.404029
-0.347094
-0.598538
-0.566931
-0.544206
-0.522004
-0.500123
-0.478924
-0.458386
-0.438949
-0.420859
-0.416189
-0.611589
-0.577441
-0.553236
-0.529842
-0.507044
-0.485319
-0.464868
-0.446111
-0.431363
-0.439484
-0.624025
-0.587471
-0.56186
-0.537323
-0.513616
-0.491282
-0.470598
-0.451705
-0.436759
-0.445929
-0.63569
-0.596893
-0.569966
-0.544343
-0.51974
-0.496721
-0.475556
-0.456126
-0.440193
-0.448115
-0.646442
-0.605587
-0.577446
-0.550805
-0.525329
-0.501579
-0.479765
-0.459569
-0.442411
-0.447711
-0.65615
-0.613437
-0.584196
-0.556616
-0.530303
-0.505793
-0.483211
-0.462069
-0.443481
-0.445466
-0.664697
-0.620331
-0.590113
-0.561681
-0.534577
-0.509298
-0.485865
-0.463648
-0.443507
-0.441952
-0.671972
-0.626162
-0.595095
-0.565905
-0.538064
-0.512022
-0.487688
-0.464319
-0.442579
-0.43745
-0.677866
-0.630821
-0.599036
-0.569188
-0.540674
-0.513884
-0.488624
-0.464067
-0.440729
-0.432077
-0.682273
-0.634199
-0.60183
-0.571428
-0.542308
-0.5148
-0.488608
-0.462856
-0.437952
-0.425874
-0.685082
-0.636186
-0.603368
-0.572519
-0.542865
-0.514675
-0.487564
-0.460633
-0.434217
-0.418841
-0.686178
-0.636667
-0.603538
-0.572351
-0.542241
-0.513414
-0.485409
-0.457334
-0.429477
-0.410953
-0.685442
-0.635527
-0.602226
-0.570811
-0.540326
-0.510916
-0.482056
-0.452887
-0.423673
-0.402171
-0.68275
-0.632649
-0.599316
-0.567787
-0.537012
-0.507078
-0.477413
-0.447215
-0.416737
-0.392446
-0.677974
-0.627913
-0.594693
-0.563165
-0.532188
-0.501797
-0.47139
-0.440238
-0.4086
-0.381724
-0.670988
-0.621203
-0.588243
-0.556833
-0.525747
-0.494973
-0.463893
-0.431877
-0.399191
-0.369946
-0.661666
-0.612404
-0.579854
-0.548683
-0.517584
-0.486508
-0.454837
-0.422054
-0.388442
-0.357058
-0.649886
-0.601407
-0.569419
-0.538611
-0.5076
-0.476308
-0.444137
-0.410696
-0.376289
-0.343002
-0.635538
-0.588108
-0.556841
-0.526519
-0.495702
-0.464289
-0.431718
-0.397737
-0.362673
-0.327728
-0.618519
-0.572416
-0.542027
-0.51232
-0.481805
-0.450372
-0.417511
-0.383119
-0.347546
-0.311191
-0.598745
-0.554252
-0.524902
-0.495938
-0.465839
-0.434493
-0.401459
-0.366795
-0.330869
-0.293354
-0.576139
-0.533545
-0.505394
-0.477305
-0.447739
-0.416596
-0.383517
-0.348726
-0.312611
-0.274186
-0.550652
-0.510248
-0.483457
-0.456372
-0.42746
-0.396641
-0.363652
-0.328889
-0.292758
-0.253667
-0.522257
-0.48433
-0.459055
-0.433108
-0.404972
-0.374604
-0.341847
-0.307274
-0.271307
-0.231791
-0.490949
-0.455781
-0.432177
-0.407495
-0.380263
-0.350477
-0.318101
-0.283886
-0.24827
-0.208559
-0.456749
-0.424613
-0.402827
-0.379539
-0.353338
-0.32427
-0.292431
-0.258744
-0.223672
-0.183988
-0.419707
-0.390861
-0.371033
-0.349266
-0.324223
-0.296015
-0.264869
-0.231881
-0.197546
-0.158109
-0.379896
-0.354583
-0.336848
-0.316721
-0.292965
-0.26576
-0.235469
-0.203348
-0.169947
-0.130916
-0.337423
-0.315863
-0.300343
-0.281974
-0.259633
-0.233575
-0.204302
-0.17324
-0.14106
-0.102285
-0.292417
-0.27481
-0.261617
-0.245116
-0.224318
-0.199551
-0.171462
-0.141675
-0.111158
-0.0723531
-0.245036
-0.231554
-0.220789
-0.206262
-0.187129
-0.163797
-0.13706
-0.108661
-0.0791676
-0.0423323
-0.195462
-0.18625
-0.178001
-0.165546
-0.1482
-0.126448
-0.101224
-0.0743993
-0.0463087
-0.0110966
-0.143899
-0.139073
-0.133416
-0.123126
-0.107685
-0.0876539
-0.0641051
-0.0390155
-0.0125811
0.0210873
-0.0905708
-0.0902209
-0.0872176
-0.0791766
-0.0657549
-0.0475878
-0.0258714
-0.00266373
0.0219543
0.0539585
-0.0357086
-0.0399147
-0.0396062
-0.033892
-0.0226006
-0.00643737
0.0132866
0.0344667
0.057129
0.0872963
0.0204112
0.0116326
0.00920045
0.0125186
0.0215738
0.0355942
0.0531618
0.0721685
0.0927419
0.120809
0.0775313
0.0641702
0.0589711
0.0598327
0.0665517
0.0782916
0.0935337
0.110234
0.128606
0.154019
0.135377
0.117442
0.109463
0.107817
0.112107
0.121429
0.134169
0.148454
0.164511
0.186218
0.193662
0.171184
0.160424
0.15623
0.158009
0.164778
0.174822
0.186532
0.199761
0.216259
0.252094
0.225123
0.211593
0.204827
0.204028
0.208127
0.215289
0.224075
0.232623
0.239651
0.310372
0.278975
0.262702
0.253355
0.249942
0.251312
0.255525
0.261114
0.262451
0.250275
0.3682
0.332459
0.31348
0.301564
0.295529
0.294181
0.29554
0.298305
0.296787
0.284171
0.425265
0.385283
0.363648
0.349186
0.340542
0.336505
0.335101
0.335163
0.331732
0.320503
0.481252
0.43715
0.412921
0.395952
0.38472
0.37802
0.373895
0.371229
0.365594
0.354431
0.53585
0.487767
0.461018
0.44159
0.427804
0.418468
0.411649
0.406254
0.398289
0.386367
0.588747
0.536842
0.507659
0.485833
0.469539
0.457605
0.448123
0.440016
0.429705
0.416571
0.639639
0.584089
0.55257
0.528421
0.509681
0.495201
0.483098
0.472308
0.459647
0.445006
0.688232
0.629234
0.595487
0.569104
0.547995
0.531039
0.516375
0.50295
0.487955
0.471617
0.734245
0.672009
0.636156
0.607642
0.584259
0.564914
0.547773
0.531791
0.514509
0.496367
0.77741
0.712163
0.674337
0.643808
0.618264
0.596641
0.577127
0.558695
0.539208
0.519226
0.817478
0.749459
0.709802
0.677392
0.649817
0.626045
0.60429
0.583541
0.561962
0.540162
0.854218
0.783677
0.742344
0.708197
0.678738
0.652968
0.629126
0.606218
0.582689
0.559139
0.887421
0.814617
0.77177
0.736044
0.704867
0.677268
0.651513
0.62663
0.601315
0.576122
0.916896
0.842097
0.797907
0.760772
0.728055
0.698816
0.671343
0.644688
0.61777
0.591075
0.942477
0.865956
0.820601
0.782238
0.748175
0.717499
0.688521
0.660315
0.631994
0.603965
0.964018
0.886055
0.839719
0.800318
0.765114
0.733219
0.702963
0.673442
0.643934
0.61476
0.981397
0.902276
0.855149
0.814908
0.778779
0.745894
0.714601
0.684013
0.653543
0.623432
0.994518
0.914525
0.866801
0.825925
0.789094
0.755459
0.723379
0.691983
0.660783
0.629957
1.00331
0.922731
0.874607
0.833304
0.796003
0.761863
0.729255
0.697315
0.665626
0.634318
1.00771
0.926845
0.878522
0.837004
0.799466
0.765073
0.732199
0.699988
0.668052
0.636501
1.00771
0.926845
0.878522
0.837004
0.799466
0.765073
0.732199
0.699988
0.668052
0.636501
1.00331
0.922731
0.874607
0.833304
0.796003
0.761863
0.729255
0.697315
0.665626
0.634318
0.994518
0.914525
0.866801
0.825925
0.789094
0.755459
0.723379
0.691983
0.660783
0.629957
0.981397
0.902276
0.855149
0.814908
0.778779
0.745894
0.714601
0.684013
0.653543
0.623432
0.964018
0.886055
0.839719
0.800318
0.765114
0.733219
0.702963
0.673442
0.643934
0.61476
0.942477
0.865956
0.820601
0.782238
0.748175
0.717499
0.688521
0.660315
0.631994
0.603965
0.916896
0.842097
0.797907
0.760772
0.728055
0.698816
0.671343
0.644688
0.61777
0.591075
0.887421
0.814617
0.77177
0.736044
0.704867
0.677268
0.651513
0.62663
0.601315
0.576122
0.854218
0.783677
0.742344
0.708197
0.678738
0.652968
0.629126
0.606218
0.582689
0.559139
0.817478
0.749459
0.709802
0.677392
0.649817
0.626045
0.60429
0.583541
0.561962
0.540162
0.77741
0.712163
0.674336
0.643808
0.618264
0.596641
0.577127
0.558695
0.539208
0.519226
0.734245
0.672009
0.636156
0.607642
0.584259
0.564914
0.547773
0.531791
0.514509
0.496367
0.688232
0.629234
0.595487
0.569104
0.547995
0.531039
0.516375
0.50295
0.487955
0.471617
0.639639
0.584089
0.55257
0.528421
0.509681
0.495201
0.483098
0.472308
0.459647
0.445006
0.588747
0.536842
0.507659
0.485833
0.469539
0.457605
0.448123
0.440016
0.429705
0.416571
0.53585
0.487767
0.461018
0.44159
0.427804
0.418468
0.411649
0.406254
0.398289
0.386367
0.481252
0.43715
0.412921
0.395952
0.38472
0.37802
0.373895
0.371229
0.365594
0.354431
0.425265
0.385283
0.363648
0.349186
0.340542
0.336505
0.3351
0.335163
0.331732
0.320503
0.3682
0.332459
0.31348
0.301564
0.295529
0.294181
0.29554
0.298305
0.296787
0.28417
0.310372
0.278975
0.262702
0.253355
0.249942
0.251312
0.255525
0.261114
0.262451
0.250274
0.252094
0.225122
0.211593
0.204827
0.204028
0.208127
0.215289
0.224075
0.232623
0.239651
0.193662
0.171184
0.160424
0.15623
0.158009
0.164778
0.174822
0.186532
0.199761
0.216259
0.135377
0.117442
0.109463
0.107817
0.112107
0.121429
0.134169
0.148454
0.164511
0.186218
0.0775312
0.0641702
0.0589711
0.0598327
0.0665517
0.0782915
0.0935336
0.110234
0.128606
0.154019
0.0204111
0.0116326
0.0092004
0.0125186
0.0215738
0.0355942
0.0531618
0.0721684
0.0927419
0.120809
-0.0357086
-0.0399148
-0.0396062
-0.033892
-0.0226007
-0.00643743
0.0132865
0.0344667
0.057129
0.0872962
-0.0905709
-0.090221
-0.0872176
-0.0791767
-0.065755
-0.0475879
-0.0258715
-0.0026638
0.0219542
0.0539585
-0.143899
-0.139073
-0.133416
-0.123126
-0.107685
-0.087654
-0.0641051
-0.0390155
-0.0125812
0.0210872
-0.195462
-0.18625
-0.178001
-0.165546
-0.1482
-0.126448
-0.101225
-0.0743994
-0.0463088
-0.0110967
-0.245036
-0.231554
-0.220789
-0.206262
-0.187129
-0.163798
-0.13706
-0.108661
-0.0791676
-0.0423324
-0.292417
-0.27481
-0.261617
-0.245116
-0.224318
-0.199551
-0.171462
-0.141675
-0.111158
-0.0723532
-0.337423
-0.315863
-0.300343
-0.281974
-0.259634
-0.233575
-0.204302
-0.17324
-0.14106
-0.102286
-0.379896
-0.354583
-0.336848
-0.316721
-0.292965
-0.26576
-0.235469
-0.203348
-0.169948
-0.130916
-0.419707
-0.390861
-0.371033
-0.349266
-0.324223
-0.296015
-0.26487
-0.231881
-0.197546
-0.15811
-0.45675
-0.424613
-0.402827
-0.37954
-0.353338
-0.32427
-0.292431
-0.258744
-0.223672
-0.183988
-0.490949
-0.455781
-0.432177
-0.407495
-0.380263
-0.350477
-0.318101
-0.283886
-0.24827
-0.208559
-0.522257
-0.48433
-0.459055
-0.433108
-0.404972
-0.374604
-0.341847
-0.307274
-0.271307
-0.231791
-0.550652
-0.510248
-0.483457
-0.456372
-0.42746
-0.396641
-0.363652
-0.328889
-0.292758
-0.253668
-0.576139
-0.533545
-0.505395
-0.477305
-0.447739
-0.416596
-0.383517
-0.348726
-0.312611
-0.274186
-0.598745
-0.554252
-0.524902
-0.495938
-0.465839
-0.434493
-0.401459
-0.366795
-0.330869
-0.293354
-0.618519
-0.572416
-0.542027
-0.51232
-0.481806
-0.450372
-0.417511
-0.383119
-0.347546
-0.311191
-0.635538
-0.588108
-0.556841
-0.526519
-0.495702
-0.464289
-0.431718
-0.397737
-0.362673
-0.327728
-0.649887
-0.601407
-0.569419
-0.538611
-0.5076
-0.476308
-0.444137
-0.410696
-0.376289
-0.343002
-0.661666
-0.612404
-0.579854
-0.548683
-0.517584
-0.486508
-0.454837
-0.422054
-0.388442
-0.357058
-0.670988
-0.621203
-0.588243
-0.556834
-0.525747
-0.494973
-0.463894
-0.431877
-0.399191
-0.369946
-0.677974
-0.627913
-0.594693
-0.563165
-0.532188
-0.501797
-0.47139
-0.440238
-0.4086
-0.381724
-0.68275
-0.632649
-0.599316
-0.567787
-0.537012
-0.507078
-0.477414
-0.447215
-0.416737
-0.392446
-0.685442
-0.635527
-0.602226
-0.570811
-0.540326
-0.510916
-0.482056
-0.452887
-0.423673
-0.402171
-0.686179
-0.636667
-0.603538
-0.572351
-0.542241
-0.513415
-0.485409
-0.457334
-0.429478
-0.410953
-0.685082
-0.636186
-0.603368
-0.572519
-0.542865
-0.514675
-0.487564
-0.460633
-0.434218
-0.418841
-0.682273
-0.634199
-0.60183
-0.571429
-0.542308
-0.5148
-0.488608
-0.462856
-0.437952
-0.425874
-0.677867
-0.630821
-0.599036
-0.569188
-0.540674
-0.513884
-0.488624
-0.464067
-0.440729
-0.432077
-0.671972
-0.626162
-0.595095
-0.565905
-0.538064
-0.512022
-0.487688
-0.464319
-0.442579
-0.43745
-0.664698
-0.620332
-0.590113
-0.561681
-0.534577
-0.509299
-0.485865
-0.463648
-0.443507
-0.441952
-0.656151
-0.613437
-0.584196
-0.556616
-0.530303
-0.505794
-0.483211
-0.462069
-0.443481
-0.445466
-0.646442
-0.605587
-0.577446
-0.550805
-0.525329
-0.501579
-0.479765
-0.459569
-0.442411
-0.447711
-0.63569
-0.596893
-0.569966
-0.544343
-0.51974
-0.496722
-0.475557
-0.456126
-0.440194
-0.448115
-0.624025
-0.587471
-0.56186
-0.537323
-0.513616
-0.491282
-0.470598
-0.451705
-0.436759
-0.445929
-0.611589
-0.577442
-0.553236
-0.529842
-0.507044
-0.485319
-0.464868
-0.446111
-0.431363
-0.439485
-0.598538
-0.566931
-0.544206
-0.522004
-0.500123
-0.478924
-0.458386
-0.438949
-0.420859
-0.416189
-0.58504
-0.556071
-0.534886
-0.513923
-0.492989
-0.4723
-0.451528
-0.430806
-0.404029
-0.347094
-0.571269
-0.544995
-0.525395
-0.505719
-0.485794
-0.465741
-0.445053
-0.42395
-0.396311
-0.336101
-0.557396
-0.533834
-0.515846
-0.4975
-0.478661
-0.459418
-0.439253
-0.418665
-0.393311
-0.340651
-0.543583
-0.522709
-0.506342
-0.489356
-0.471667
-0.453367
-0.434017
-0.414284
-0.390926
-0.344662
-0.529982
-0.511736
-0.496978
-0.481364
-0.464866
-0.447593
-0.429211
-0.410472
-0.38879
-0.347845
-0.516724
-0.501018
-0.487837
-0.473589
-0.458298
-0.442099
-0.424766
-0.407096
-0.387015
-0.350817
-0.503927
-0.490648
-0.478996
-0.466088
-0.452
-0.43689
-0.420634
-0.404044
-0.385463
-0.353455
-0.491691
-0.48071
-0.470523
-0.458912
-0.446002
-0.431971
-0.416781
-0.401232
-0.384001
-0.355622
-0.480103
-0.471276
-0.462477
-0.452107
-0.440331
-0.427344
-0.413184
-0.398611
-0.382575
-0.357321
-0.469236
-0.46241
-0.454913
-0.445714
-0.435014
-0.423021
-0.409831
-0.396156
-0.381173
-0.358605
-0.459155
-0.454171
-0.447879
-0.43977
-0.430076
-0.419011
-0.406721
-0.393861
-0.3798
-0.359537
-0.449917
-0.446609
-0.44142
-0.434312
-0.425543
-0.415331
-0.403861
-0.391727
-0.37847
-0.36018
-0.441569
-0.43977
-0.435574
-0.42937
-0.421438
-0.411997
-0.40126
-0.389767
-0.377203
-0.360594
-0.43416
-0.433694
-0.430378
-0.424975
-0.417785
-0.409026
-0.398935
-0.387996
-0.376023
-0.360833
-0.42773
-0.428416
-0.425863
-0.421154
-0.414607
-0.406437
-0.3969
-0.386431
-0.374955
-0.360946
-0.422313
-0.423969
-0.422056
-0.417931
-0.411924
-0.404248
-0.395173
-0.385092
-0.374023
-0.360975
-0.41794
-0.420378
-0.418981
-0.415326
-0.409754
-0.402476
-0.393769
-0.383996
-0.373249
-0.360955
-0.414637
-0.417666
-0.416657
-0.413357
-0.408113
-0.401133
-0.392703
-0.383159
-0.372651
-0.360915
-0.412424
-0.415848
-0.4151
-0.412037
-0.407012
-0.400231
-0.391986
-0.382594
-0.372244
-0.360876
-0.411315
-0.414936
-0.414319
-0.411375
-0.406459
-0.399778
-0.391625
-0.382308
-0.372038
-0.360853
-0.350605
-0.336109
-0.321119
-0.304889
-0.287837
-0.270267
-0.252398
-0.234453
-0.216602
-0.19898
-0.181686
-0.164791
-0.148347
-0.13239
-0.11696
-0.10207
-0.0878011
-0.0741149
-0.0612632
-0.0489564
-0.0380305
-0.0272112
-0.0192064
-0.00947227
-0.00636786
0.00437886
-0.00167081
0.0166347
-0.00866581
0.034514
-0.351282
-0.336471
-0.321432
-0.305158
-0.28807
-0.270479
-0.252595
-0.23464
-0.216782
-0.199154
-0.181854
-0.164954
-0.148504
-0.132541
-0.117103
-0.102206
-0.0879299
-0.0742356
-0.0613753
-0.0490595
-0.0381239
-0.0272952
-0.0192791
-0.00953706
-0.00641837
0.00432998
-0.00169645
0.0165912
-0.00865811
0.0344471
-0.352628
-0.337191
-0.322054
-0.305692
-0.288533
-0.270899
-0.252986
-0.235012
-0.21714
-0.1995
-0.182189
-0.165277
-0.148816
-0.13284
-0.117389
-0.102478
-0.0881864
-0.0744759
-0.0615985
-0.0492648
-0.0383099
-0.0274626
-0.0194241
-0.0096662
-0.00651905
0.00423248
-0.00174757
0.0165043
-0.00864271
0.0343136
-0.354631
-0.338259
-0.322977
-0.306483
-0.289218
-0.271521
-0.253566
-0.235564
-0.217671
-0.200014
-0.182687
-0.165759
-0.14928
-0.133286
-0.117815
-0.102883
-0.0885683
-0.0748338
-0.061931
-0.0495707
-0.038587
-0.0277121
-0.0196404
-0.00985889
-0.00666927
0.00408684
-0.00182386
0.0163743
-0.00861962
0.0341143
-0.357271
-0.339662
-0.324186
-0.30752
-0.290116
-0.272338
-0.254328
-0.23629
-0.218371
-0.200692
-0.183344
-0.166394
-0.149893
-0.133874
-0.118377
-0.103416
-0.0890722
-0.0753062
-0.0623699
-0.0499747
-0.0389531
-0.0280418
-0.0199262
-0.0101139
-0.00686805
0.00389379
-0.00192484
0.0162019
-0.00858887
0.0338501
-0.360519
-0.341384
-0.325665
-0.308786
-0.291214
-0.273337
-0.255261
-0.237181
-0.219231
-0.201526
-0.184153
-0.167177
-0.150648
-0.134599
-0.11907
-0.104074
-0.0896939
-0.0758891
-0.0629116
-0.0504736
-0.0394054
-0.0284494
-0.0202797
-0.0104296
-0.00711415
0.00365427
-0.0020499
0.0159876
-0.00855047
0.0335224
-0.364341
-0.343404
-0.327392
-0.310264
-0.292495
-0.274505
-0.256356
-0.238227
-0.220242
-0.202508
-0.185107
-0.168101
-0.151539
-0.135454
-0.119887
-0.104852
-0.090428
-0.0765776
-0.0635516
-0.0510633
-0.0399403
-0.028932
-0.0206984
-0.0108042
-0.00740602
0.00336945
-0.0021983
0.0157325
-0.00850447
0.0331329
-0.368692
-0.345698
-0.329341
-0.31193
-0.293942
-0.275826
-0.257598
-0.239418
-0.221396
-0.203629
-0.186196
-0.169157
-0.152558
-0.136433
-0.120823
-0.105741
-0.0912684
-0.0773661
-0.0642849
-0.0517393
-0.0405538
-0.0294861
-0.0211793
-0.0112352
-0.00774188
0.00304068
-0.00236917
0.0154373
-0.00845092
0.0326836
-0.373519
-0.348241
-0.331483
-0.313761
-0.295535
-0.277285
-0.258973
-0.24074
-0.22268
-0.20488
-0.187413
-0.170336
-0.153696
-0.137527
-0.121869
-0.106736
-0.0922085
-0.0782483
-0.0651058
-0.0524966
-0.0412415
-0.0301079
-0.0217194
-0.0117202
-0.00811971
0.00266952
-0.00256152
0.0151034
-0.00838987
0.0321766
-0.378754
-0.351005
-0.333783
-0.315728
-0.297251
-0.278861
-0.260465
-0.242181
-0.224082
-0.206248
-0.188745
-0.171629
-0.154946
-0.138728
-0.123017
-0.107828
-0.0932409
-0.0792177
-0.0660081
-0.0533297
-0.0419984
-0.0307933
-0.022315
-0.0122564
-0.0085373
0.00225764
-0.00277428
0.0147319
-0.00832142
0.0316145
-0.384312
-0.353958
-0.336202
-0.317799
-0.299068
-0.280538
-0.26206
-0.243726
-0.22559
-0.207723
-0.190184
-0.173026
-0.156296
-0.140027
-0.124259
-0.109009
-0.094358
-0.0802669
-0.0669852
-0.0542325
-0.0428194
-0.0315378
-0.0229624
-0.0128407
-0.00899226
0.00180691
-0.0030063
0.0143243
-0.00824565
0.0309998
-0.390079
-0.35707
-0.3387
-0.31994
-0.300963
-0.282295
-0.263741
-0.245362
-0.227193
-0.209292
-0.191717
-0.174517
-0.157737
-0.141413
-0.125586
-0.110271
-0.0955516
-0.0813885
-0.0680302
-0.0551991
-0.0436989
-0.0323367
-0.0236576
-0.0134701
-0.00948208
0.00131927
-0.00325637
0.0138821
-0.00816271
0.0303355
-0.3959
-0.360308
-0.341232
-0.322114
-0.30291
-0.284113
-0.265493
-0.247075
-0.228876
-0.210945
-0.193334
-0.17609
-0.15926
-0.142878
-0.126988
-0.111606
-0.0968137
-0.082575
-0.0691363
-0.056223
-0.0446314
-0.0331852
-0.0243966
-0.0141411
-0.0100042
0.000796724
-0.00352329
0.0134067
-0.00807277
0.0296246
-0.401558
-0.363634
-0.343754
-0.324281
-0.304883
-0.285975
-0.267299
-0.248851
-0.230629
-0.212671
-0.195024
-0.177737
-0.160854
-0.144413
-0.128457
-0.113004
-0.0981368
-0.0838193
-0.0702967
-0.0572983
-0.0456114
-0.0340788
-0.0251753
-0.0148507
-0.0105561
0.00024131
-0.00380582
0.0128999
-0.007976
0.02887
-0.406735
-0.366977
-0.346208
-0.32639
-0.306854
-0.287859
-0.269145
-0.250678
-0.232439
-0.214458
-0.196778
-0.179447
-0.162512
-0.146009
-0.129985
-0.114459
-0.0995136
-0.0851147
-0.0715053
-0.0584193
-0.0466338
-0.0350126
-0.0259895
-0.0155953
-0.0111345
-0.000344521
-0.00410213
0.0123635
-0.00787218
0.0280752
-0.410929
-0.370216
-0.348543
-0.328396
-0.308794
-0.289746
-0.271013
-0.252539
-0.23429
-0.21629
-0.198581
-0.181207
-0.164218
-0.147653
-0.13156
-0.115958
-0.100933
-0.0864506
-0.0727522
-0.059577
-0.0476901
-0.0359795
-0.0268327
-0.0163695
-0.0117351
-0.000957237
-0.00440964
0.0117999
-0.00776088
0.0272434
-0.41349
-0.373308
-0.350783
-0.330285
-0.310687
-0.291625
-0.27289
-0.25442
-0.236168
-0.218153
-0.200414
-0.182998
-0.165955
-0.149325
-0.13316
-0.117482
-0.102376
-0.0878088
-0.0740206
-0.0607562
-0.0487677
-0.036969
-0.0276975
-0.0171678
-0.0123554
-0.00159489
-0.00472984
0.0112105
-0.00764534
0.0263782
-0.413917
-0.376301
-0.352965
-0.332053
-0.312534
-0.293512
-0.274802
-0.25635
-0.238102
-0.220074
-0.202305
-0.184843
-0.167741
-0.151042
-0.134801
-0.11904
-0.103848
-0.0891946
-0.0753155
-0.0619624
-0.0498738
-0.0379891
-0.0285953
-0.0180011
-0.0130108
-0.00226776
-0.0050784
0.0105916
-0.00753727
0.0254816
-0.410085
-0.377837
-0.354595
-0.333467
-0.314214
-0.295367
-0.276758
-0.258373
-0.240162
-0.222144
-0.20436
-0.186861
-0.169702
-0.152932
-0.136608
-0.120758
-0.105471
-0.0907202
-0.0767393
-0.0632867
-0.0510862
-0.0391051
-0.0295758
-0.0189076
-0.0137236
-0.00299252
-0.00545734
0.0099371
-0.00742889
0.0245534
-0.391293
-0.374183
-0.354791
-0.334023
-0.315326
-0.29683
-0.27842
-0.260174
-0.242066
-0.224119
-0.206378
-0.188898
-0.171734
-0.154937
-0.138566
-0.122652
-0.107282
-0.0924358
-0.0783379
-0.0647666
-0.0524128
-0.0403068
-0.0305791
-0.0198235
-0.0143678
-0.00368528
-0.00571257
0.00928661
-0.00719724
0.0236001
-0.339721
-0.365577
-0.355606
-0.335285
-0.31686
-0.298487
-0.280062
-0.261772
-0.243626
-0.225659
-0.207918
-0.190454
-0.173316
-0.156545
-0.14019
-0.124276
-0.108876
-0.0939779
-0.0797781
-0.0661003
-0.0535577
-0.0413258
-0.0313132
-0.020509
-0.0146462
-0.00418045
-0.00556412
0.00863997
-0.00660391
0.0224402
-0.320075
-0.352125
-0.347619
-0.329136
-0.312243
-0.295066
-0.277485
-0.259855
-0.242256
-0.224748
-0.207401
-0.190274
-0.173423
-0.156897
-0.140744
-0.124998
-0.109729
-0.0949354
-0.0807959
-0.0671723
-0.0546114
-0.0424071
-0.0322695
-0.0215242
-0.0153631
-0.00512456
-0.0058787
0.00763066
-0.00626392
0.0210202
-0.3121
-0.339979
-0.337649
-0.320928
-0.305557
-0.28971
-0.273162
-0.256375
-0.239489
-0.222595
-0.205777
-0.189108
-0.172655
-0.156472
-0.140615
-0.125122
-0.110065
-0.0954555
-0.0814556
-0.0679614
-0.0554613
-0.0433523
-0.0331659
-0.022527
-0.0161334
-0.00612805
-0.00630424
0.00656491
-0.00602595
0.0195512
-0.306106
-0.328553
-0.327826
-0.312764
-0.298637
-0.284004
-0.268479
-0.25255
-0.236407
-0.220157
-0.203902
-0.187727
-0.171704
-0.155897
-0.140364
-0.125152
-0.110331
-0.0959235
-0.0820793
-0.0687258
-0.0562959
-0.0442876
-0.0340565
-0.0235271
-0.0169009
-0.00713706
-0.00672577
0.00547339
-0.00577113
0.0180068
-0.300111
-0.317306
-0.317703
-0.30426
-0.291251
-0.277779
-0.263301
-0.248276
-0.232925
-0.217372
-0.20173
-0.186094
-0.170545
-0.155151
-0.139977
-0.125075
-0.110516
-0.096334
-0.082665
-0.0694672
-0.0571213
-0.0452217
-0.0349551
-0.0245383
-0.0176838
-0.00816605
-0.00716021
0.00434658
-0.00550739
0.0163848
-0.293415
-0.305961
-0.306934
-0.295069
-0.283149
-0.270822
-0.257431
-0.243368
-0.228875
-0.214086
-0.199121
-0.184083
-0.169061
-0.15413
-0.139359
-0.124807
-0.110547
-0.0966213
-0.0831573
-0.0701396
-0.0579023
-0.0461286
-0.035847
-0.0255523
-0.0184853
-0.00921614
-0.00762203
0.00318582
-0.0052538
0.0146955
-0.285552
-0.294244
-0.295403
-0.285081
-0.27427
-0.263078
-0.250808
-0.237762
-0.224191
-0.210232
-0.196008
-0.181631
-0.167194
-0.152778
-0.138459
-0.124302
-0.110381
-0.096748
-0.0835229
-0.070714
-0.0586141
-0.0469872
-0.0367159
-0.0265546
-0.0192972
-0.0102777
-0.00811119
0.00200018
-0.00501898
0.0129521
-0.27622
-0.281932
-0.283043
-0.274231
-0.264574
-0.254521
-0.2434
-0.231424
-0.218834
-0.205768
-0.19235
-0.178695
-0.164902
-0.151058
-0.137242
-0.123526
-0.109987
-0.0966862
-0.0837364
-0.0711675
-0.0592366
-0.0477793
-0.0375467
-0.0275312
-0.0201099
-0.0113396
-0.00862475
0.000800107
-0.00480898
0.011169
-0.265289
-0.268871
-0.269817
-0.262474
-0.254027
-0.245126
-0.23518
-0.224321
-0.212766
-0.200654
-0.188105
-0.175234
-0.162145
-0.148929
-0.13567
-0.122445
-0.109334
-0.0964064
-0.0837712
-0.0714763
-0.0597487
-0.0484862
-0.0383237
-0.0284679
-0.0209138
-0.0123908
-0.00915999
-0.000403633
-0.00463057
0.00936281
-0.25276
-0.254977
-0.255734
-0.24981
-0.242623
-0.234894
-0.226142
-0.216436
-0.205966
-0.194861
-0.183239
-0.171213
-0.158887
-0.146356
-0.133708
-0.121025
-0.10839
-0.09588
-0.083601
-0.0716166
-0.0601288
-0.0490891
-0.0390308
-0.0293504
-0.0216985
-0.0134203
-0.0097137
-0.0015997
-0.00449077
0.00755233
-0.238737
-0.240244
-0.240862
-0.236292
-0.230398
-0.223856
-0.216308
-0.207781
-0.198432
-0.188382
-0.177738
-0.166611
-0.155103
-0.143312
-0.131329
-0.119239
-0.107129
-0.0950819
-0.0832022
-0.0715666
-0.0603572
-0.04957
-0.0396522
-0.0301646
-0.0224533
-0.0144166
-0.0102818
-0.00277634
-0.00439598
0.00575834
-0.223427
-0.224743
-0.225322
-0.222028
-0.217433
-0.212083
-0.205736
-0.198398
-0.190194
-0.18123
-0.171605
-0.161423
-0.150784
-0.139784
-0.128516
-0.117069
-0.105532
-0.0939927
-0.0825558
-0.0713082
-0.0604166
-0.0499133
-0.0401734
-0.0308974
-0.0231674
-0.0153688
-0.0108592
-0.0039218
-0.00435162
0.00400288
-0.207118
-0.208624
-0.209284
-0.207179
-0.203853
-0.19968
-0.194516
-0.188362
-0.181309
-0.173449
-0.16487
-0.155667
-0.145937
-0.135772
-0.125265
-0.114507
-0.103588
-0.0926007
-0.0816491
-0.0708285
-0.0602938
-0.0501061
-0.0405822
-0.0315374
-0.0238305
-0.0162669
-0.0114403
-0.00502478
-0.00436168
0.00230861
-0.190161
-0.192098
-0.192961
-0.191943
-0.189824
-0.186794
-0.182776
-0.177777
-0.171863
-0.165107
-0.157586
-0.149385
-0.140591
-0.131296
-0.121588
-0.111558
-0.101299
-0.0909036
-0.0804772
-0.0701209
-0.0599808
-0.0501402
-0.0408689
-0.0320756
-0.0244336
-0.0171019
-0.0120188
-0.00607489
-0.00442836
0.000697921
-0.172937
-0.175424
-0.176593
-0.17655
-0.175544
-0.173595
-0.17067
-0.16678
-0.161973
-0.156303
-0.149833
-0.142639
-0.134797
-0.126394
-0.117513
-0.108244
-0.0986779
-0.0889097
-0.0790442
-0.0691864
-0.0594757
-0.0500118
-0.0410281
-0.032506
-0.024969
-0.0178669
-0.012588
-0.00706302
-0.00455171
-0.000808017
-0.155825
-0.15888
-0.160424
-0.161239
-0.16123
-0.160278
-0.15837
-0.155526
-0.151775
-0.147154
-0.141713
-0.135513
-0.128625
-0.121122
-0.113085
-0.104598
-0.0957514
-0.0866387
-0.0773638
-0.068034
-0.0587832
-0.0497229
-0.0410581
-0.0328259
-0.0254313
-0.0185566
-0.0131413
-0.00798168
-0.00472933
-0.00219046
-0.139168
-0.14274
-0.144692
-0.146241
-0.147098
-0.14704
-0.146061
-0.144184
-0.141421
-0.137795
-0.133343
-0.128112
-0.12216
-0.115553
-0.108363
-0.10067
-0.0925587
-0.0841212
-0.0754593
-0.0666809
-0.0579151
-0.0492809
-0.040962
-0.0330361
-0.0258173
-0.0191681
-0.0136721
-0.00882523
-0.00495601
-0.00343426
-0.123255
-0.127248
-0.129607
-0.131769
-0.133353
-0.134077
-0.133927
-0.132923
-0.13107
-0.128372
-0.124853
-0.120548
-0.115503
-0.109773
-0.103422
-0.0965205
-0.0891498
-0.0813978
-0.0733628
-0.0651518
-0.0568893
-0.0486986
-0.0407471
-0.033141
-0.0261263
-0.0197004
-0.0141743
-0.00959009
-0.00522438
-0.00452825
-0.108304
-0.112607
-0.115343
-0.118001
-0.120178
-0.121565
-0.122138
-0.121911
-0.120877
-0.119028
-0.116377
-0.112944
-0.108763
-0.103878
-0.0983421
-0.0922198
-0.0855838
-0.0785172
-0.0711138
-0.0634781
-0.0557299
-0.0479938
-0.0404248
-0.0331481
-0.02636
-0.0201549
-0.0146427
-0.0102746
-0.00552533
-0.00546582
-0.0944666
-0.0989687
-0.102034
-0.105079
-0.107724
-0.109659
-0.110848
-0.111297
-0.110988
-0.109905
-0.108045
-0.105419
-0.102049
-0.097965
-0.0932121
-0.087844
-0.0819259
-0.0755344
-0.0687578
-0.0616964
-0.0544652
-0.0471882
-0.0400102
-0.0330678
-0.0265224
-0.0205345
-0.0150728
-0.0108787
-0.00584851
-0.00624533
-0.0818316
-0.0864352
-0.0897711
-0.0931079
-0.0961098
-0.0984859
-0.100188
-0.101213
-0.101535
-0.10113
-0.0999824
-0.0980924
-0.0954696
-0.092135
-0.088121
-0.0834721
-0.0782448
-0.072508
-0.0663437
-0.059847
-0.0531274
-0.0463063
-0.0395207
-0.0329126
-0.0266196
-0.0208437
-0.0154611
-0.0114041
-0.00618293
-0.00687022
-0.070439
-0.0750653
-0.0786127
-0.0821602
-0.0854246
-0.0881449
-0.0902657
-0.0917728
-0.092635
-0.092819
-0.0923021
-0.0910728
-0.0891301
-0.0864843
-0.0831573
-0.0791835
-0.0746104
-0.0694986
-0.0639229
-0.0579723
-0.0517506
-0.0453751
-0.038976
-0.0326968
-0.0266591
-0.0210883
-0.0158057
-0.0118537
-0.00651767
-0.00734865
-0.0602947
-0.0648856
-0.0685898
-0.0722816
-0.075731
-0.0787127
-0.0811671
-0.0830707
-0.0843866
-0.0850757
-0.0851076
-0.0844618
-0.0831276
-0.0811052
-0.0784065
-0.0750561
-0.0710922
-0.066567
-0.0615476
-0.0561161
-0.0503703
-0.0444225
-0.038397
-0.0324356
-0.0266499
-0.0212748
-0.0161054
-0.0122317
-0.00684259
-0.00769289
-0.0513848
-0.055902
-0.0597159
-0.0635002
-0.0670734
-0.0702477
-0.0729622
-0.0751853
-0.0768759
-0.0779903
-0.0784919
-0.0783527
-0.0775535
-0.0760854
-0.0739511
-0.0711659
-0.067759
-0.0637739
-0.0592701
-0.0543226
-0.0490228
-0.0434776
-0.0378055
-0.0321451
-0.0266017
-0.0214105
-0.0163605
-0.012543
-0.0071489
-0.00791844
-0.0436893
-0.0481111
-0.0519969
-0.0558349
-0.0594854
-0.0627971
-0.0657095
-0.068185