/*--------------------------------*- C++ -*----------------------------------*\
  =========                 |
  \\      /  F ield         | OpenFOAM: The Open Source CFD Toolbox
   \\    /   O peration     | Website:  https://openfoam.org
    \\  /    A nd           | Version:  7
     \\/     M anipulation  |
\*---------------------------------------------------------------------------*/
FoamFile
{
    version     2.0;
    format      ascii;
    class       surfaceScalarField;
    location    "5";
    object      phi;
}
// * * * * * * * * * * * * * * * * * * * * * * * * * * * * * * * * * * * * * //

dimensions      [0 3 -1 0 0 0 0];

internalField   nonuniform List<scalar> 
16735
(
-1.90458e-06
1.9046e-06
-1.6067e-11
-5.67285e-06
3.76833e-06
-5.65049e-11
-9.77571e-06
4.10297e-06
-1.05967e-10
-1.26982e-05
2.92266e-06
-1.58863e-10
-1.29665e-05
2.68499e-07
-2.1125e-10
-9.19819e-06
-3.76804e-06
-2.6005e-10
-1.72587e-07
-9.0253e-06
-3.0398e-10
1.50594e-05
-1.52316e-05
-3.438e-10
3.70995e-05
-2.20398e-05
-3.80493e-10
-2.88991e-05
-4.13427e-10
6.59991e-05
-1.8455e-06
3.75009e-06
-5.44023e-06
7.36306e-06
-9.24581e-06
7.90855e-06
-1.17345e-05
5.41137e-06
-1.1415e-05
-5.09987e-08
-6.88149e-06
-8.30158e-06
3.11622e-06
-1.9023e-05
1.95629e-05
-3.16783e-05
4.30897e-05
-4.55666e-05
-5.95757e-05
7.37663e-05
-1.7278e-06
5.4779e-06
-4.97671e-06
1.0612e-05
-8.18996e-06
1.11218e-05
-9.81464e-06
7.03605e-06
-8.32487e-06
-1.54077e-06
-2.2681e-06
-1.43584e-05
9.66537e-06
-3.09565e-05
2.85285e-05
-5.05414e-05
5.50161e-05
-7.20542e-05
-9.37936e-05
8.9234e-05
-1.55241e-06
7.03031e-06
-4.28561e-06
1.33452e-05
-6.61576e-06
1.3452e-05
-6.95307e-06
7.37336e-06
-3.72092e-06
-4.77291e-06
4.6021e-06
-2.26814e-05
1.9415e-05
-4.57694e-05
4.18742e-05
-7.30006e-05
7.2772e-05
-0.000102952
-0.000133292
0.00011227
-1.32058e-06
8.35089e-06
-3.37153e-06
1.53961e-05
-4.53392e-06
1.46143e-05
-3.17041e-06
6.00985e-06
2.36109e-06
-1.03044e-05
1.36718e-05
-3.39921e-05
3.2279e-05
-6.43766e-05
5.94788e-05
-0.0001002
9.61989e-05
-0.000139672
-0.000179771
0.000142679
-1.03376e-06
9.38466e-06
-2.24e-06
1.66023e-05
-1.95744e-06
1.43318e-05
1.50792e-06
2.54449e-06
9.87646e-06
-1.86729e-05
2.48684e-05
-4.8984e-05
4.81466e-05
-8.76548e-05
8.11851e-05
-0.000133239
0.000125089
-0.000183576
-0.000234885
0.000180203
-6.93502e-07
1.00782e-05
-8.9688e-07
1.68057e-05
1.09931e-06
1.23356e-05
7.05328e-06
-3.40948e-06
1.87742e-05
-3.03938e-05
3.81069e-05
-6.83168e-05
6.68862e-05
-0.000116434
0.000106803
-0.000173155
0.000159188
-0.000235962
-0.000300227
0.00022453
-3.0137e-07
1.03795e-05
6.51707e-07
1.58526e-05
4.62156e-06
8.36574e-06
1.34358e-05
-1.22237e-05
2.89994e-05
-4.59575e-05
5.32947e-05
-9.2612e-05
8.83501e-05
-0.00015149
0.000136113
-0.000220918
0.0001982
-0.000298048
-0.000377317
0.000275289
1.42477e-07
1.02371e-05
2.40071e-06
1.35944e-05
8.59541e-06
2.17104e-06
2.06259e-05
-2.42542e-05
4.04969e-05
-6.58286e-05
7.03351e-05
-0.00012245
0.00011238
-0.000193535
0.000168875
-0.000277413
0.000241787
-0.00037096
-0.000467591
0.000332061
6.35446e-07
9.60161e-06
4.34552e-06
9.88433e-06
1.30081e-05
-6.49156e-06
2.8596e-05
-3.9842e-05
5.32137e-05
-9.04463e-05
8.91334e-05
-0.00015837
0.000138816
-0.000243217
0.000204832
-0.000343429
0.000289579
-0.000455707
-0.000572386
0.000394374
1.17847e-06
8.42314e-06
6.48251e-06
4.58029e-06
1.78486e-05
-1.78576e-05
3.73214e-05
-5.93148e-05
6.71017e-05
-0.000120227
0.000109601
-0.000200869
0.000167499
-0.000301116
0.000243721
-0.000419651
0.000341177
-0.000553162
-0.000692919
0.000461709
1.77108e-06
6.65206e-06
8.80863e-06
-2.45726e-06
2.31068e-05
-3.21558e-05
4.67801e-05
-8.29881e-05
8.2119e-05
-0.000155566
0.000131661
-0.000250411
0.000198289
-0.000367744
0.000285287
-0.000506649
0.000396165
-0.000664039
-0.000830253
0.000533499
2.4132e-06
4.23886e-06
1.13205e-05
-1.13646e-05
2.87725e-05
-4.96078e-05
5.69512e-05
-0.000111167
9.82292e-05
-0.000196843
0.000155251
-0.000307433
0.000231068
-0.000443561
0.000329301
-0.000604882
0.000454125
-0.000788863
-0.000985258
0.00060913
3.1044e-06
1.13446e-06
1.40133e-05
-2.22735e-05
3.48323e-05
-7.04269e-05
6.78108e-05
-0.000144145
0.000115398
-0.00024443
0.000180321
-0.000372357
0.000265753
-0.000528993
0.000375583
-0.000714712
0.000514667
-0.000927947
-0.00115854
0.00068795
3.84323e-06
-2.70876e-06
1.68783e-05
-3.53086e-05
4.12657e-05
-9.48143e-05
7.93256e-05
-0.000182205
0.000133583
-0.000298687
0.000206832
-0.000445607
0.000302302
-0.000624462
0.000424036
-0.000836446
0.000577482
-0.00108139
-0.00135035
0.000769287
4.62653e-06
-7.33529e-06
1.99009e-05
-5.05829e-05
4.80398e-05
-0.000122953
9.14428e-05
-0.000225608
0.000152722
-0.000359966
0.000234735
-0.000527619
0.00034071
-0.000730437
0.000474685
-0.000970421
0.000642434
-0.00124914
-0.0015604
0.00085249
5.4486e-06
-1.27839e-05
2.30576e-05
-6.81919e-05
5.51031e-05
-0.000154999
0.000104079
-0.000274584
0.000172708
-0.000428596
0.000263938
-0.000618849
0.000380979
-0.000847478
0.000527688
-0.00111713
0.000709665
-0.00143112
-0.00178782
0.000937079
6.30054e-06
-1.90844e-05
2.63142e-05
-8.82056e-05
6.23799e-05
-0.000191064
0.000117104
-0.000329308
0.000193364
-0.000504856
0.000294265
-0.000719751
0.000423074
-0.000976286
0.000583365
-0.00127742
0.000779703
-0.00162746
-0.00203133
0.00102322
7.16998e-06
-2.62544e-05
2.96244e-05
-0.00011066
6.97665e-05
-0.000231207
0.000130333
-0.000389874
0.000214406
-0.000588929
0.000325377
-0.000830722
0.000466834
-0.00111774
0.000642362
-0.00145295
0.000854241
-0.00183933
-0.00228943
0.00111234
8.04142e-06
-3.42958e-05
3.29309e-05
-0.00013555
7.7131e-05
-0.000275407
0.000143514
-0.000456257
0.000235406
-0.00068082
0.000356629
-0.000951945
0.000511575
-0.00127269
0.000705233
-0.00164661
0.000939791
-0.00207389
-0.00255475
0.00120512
8.89779e-06
-4.31936e-05
3.61701e-05
-0.000162822
8.4324e-05
-0.000323561
0.000156347
-0.00052828
0.000255789
-0.000780262
0.000386928
-0.00108308
0.000555163
-0.00144092
0.000768125
-0.00185957
0.00104179
-0.00234756
-0.00294545
0.00143249
9.72127e-06
-5.29149e-05
3.9277e-05
-0.000192378
9.11917e-05
-0.000375475
0.000168516
-0.000605605
0.000274921
-0.000886667
0.000414911
-0.00122307
0.000594278
-0.00162029
0.00082111
-0.0020864
0.00110881
-0.00263526
-0.0033047
0.00146806
1.04973e-05
-6.34122e-05
4.21973e-05
-0.000224078
9.76061e-05
-0.000430884
0.000179764
-0.000687763
0.000292319
-0.000999221
0.000439679
-0.00137043
0.000627266
-0.00180788
0.000861717
-0.00232085
0.0011507
-0.00292424
-0.00364686
0.00149286
1.12153e-05
-7.46276e-05
4.48907e-05
-0.000257753
0.000103476
-0.000489469
0.000189924
-0.000774211
0.000307719
-0.00111702
0.000460917
-0.00152363
0.000654131
-0.00200109
0.000892091
-0.00255881
0.00117811
-0.00321025
-0.00397556
0.00150681
1.18693e-05
-8.64968e-05
4.73335e-05
-0.000293217
0.000108749
-0.000550884
0.000198916
-0.000864378
0.000321045
-0.00123915
0.000478685
-0.00168127
0.000675489
-0.0021979
0.000914444
-0.00279777
0.00119606
-0.00349187
-0.00429306
0.00151355
1.24572e-05
-9.89541e-05
4.95163e-05
-0.000330276
0.000113408
-0.000614776
0.000206726
-0.000957696
0.000332337
-0.00136476
0.000493213
-0.00184215
0.000692048
-0.00239673
0.000930395
-0.00303611
0.00120702
-0.0037685
-0.00460099
0.00151495
1.29805e-05
-0.000111935
5.14407e-05
-0.000368737
0.000117459
-0.000680794
0.000213384
-0.00105362
0.000341698
-0.00149307
0.000504777
-0.00200523
0.000704439
-0.00259639
0.000941099
-0.00327277
0.00121245
-0.00403985
-0.00490023
0.0015117
1.34419e-05
-0.000125377
5.31141e-05
-0.000408409
0.00012092
-0.0007486
0.000218937
-0.00115164
0.000349244
-0.00162338
0.000513635
-0.00216962
0.000713151
-0.00279591
0.000947313
-0.00350694
0.00121312
-0.00430566
-0.00519112
0.00150401
1.38449e-05
-0.000139221
5.45459e-05
-0.00044911
0.000123812
-0.000817866
0.000223433
-0.00125126
0.000355076
-0.00175502
0.000519986
-0.00233453
0.000718516
-0.00299444
0.000949476
-0.0037379
0.00120938
-0.00456557
-0.00547358
0.00149184
1.41924e-05
-0.000153414
5.57442e-05
-0.000490661
0.000126154
-0.000888275
0.000226908
-0.00135201
0.000359269
-0.00188738
0.000523959
-0.00249922
0.000720724
-0.0031912
0.000947786
-0.00396496
0.00120129
-0.00481908
-0.00574725
0.00147497
1.44859e-05
-0.0001679
5.67132e-05
-0.000532889
0.000127953
-0.000959515
0.000229383
-0.00145344
0.00036186
-0.00201986
0.000525614
-0.00266297
0.000719846
-0.00338544
0.000942277
-0.00418739
0.00118875
-0.00506555
-0.00601155
0.00145305
1.47257e-05
-0.000182625
5.74527e-05
-0.000575616
0.00012921
-0.00103127
0.000230857
-0.00155509
0.000362852
-0.00215185
0.000524954
-0.00282507
0.000715869
-0.00357635
0.000932875
-0.0044044
0.00117156
-0.00530424
-0.00626571
0.00142572
1.49102e-05
-0.000197536
5.79576e-05
-0.000618663
0.000129914
-0.00110323
0.000231314
-0.00165649
0.000362218
-0.00228276
0.000521939
-0.0029848
0.00070872
-0.00376313
0.000919444
-0.00461512
0.00114947
-0.00553426
-0.00650884
0.00139261
1.50366e-05
-0.000212572
5.82182e-05
-0.000661845
0.000130046
-0.00117506
0.00023072
-0.00175717
0.000359912
-0.00241195
0.000516498
-0.00314138
0.000698292
-0.00394493
0.000901821
-0.00481865
0.00112224
-0.00575468
-0.00673999
0.00135339
1.5101e-05
-0.000227673
5.82213e-05
-0.000704965
0.000129578
-0.00124641
0.000229035
-0.00185662
0.00035587
-0.00253878
0.000508545
-0.00329406
0.000684468
-0.00412085
0.000879846
-0.00501403
0.00108966
-0.0059645
-0.00695814
0.00130781
1.50983e-05
-0.000242771
5.79514e-05
-0.000747818
0.000128482
-0.00131694
0.000226208
-0.00195435
0.000350025
-0.0026626
0.000497989
-0.00344202
0.000667135
-0.00429
0.00085338
-0.00520027
0.00105158
-0.00616269
-0.00716226
0.0012557
1.50233e-05
-0.000257795
5.73918e-05
-0.000790187
0.000126725
-0.00138628
0.000222193
-0.00204982
0.000342311
-0.00278272
0.00048475
-0.00358446
0.000646197
-0.00445144
0.00082232
-0.00537639
0.00100788
-0.00634826
-0.00735134
0.00119697
1.48707e-05
-0.000272665
5.65257e-05
-0.000831842
0.000124275
-0.00145403
0.000216942
-0.00214248
0.000332669
-0.00289845
0.000468761
-0.00372055
0.000621588
-0.00460427
0.000786609
-0.00554142
0.000958543
-0.00652019
-0.00752443
0.00113164
1.4635e-05
-0.000287301
5.53375e-05
-0.000872544
0.000121105
-0.00151979
0.000210416
-0.00223179
0.000321053
-0.00300908
0.000449977
-0.00384948
0.000593275
-0.00474757
0.000746244
-0.00569438
0.000903605
-0.00667755
-0.00768065
0.00105982
1.43118e-05
-0.000301612
5.38136e-05
-0.000912046
0.000117192
-0.00158317
0.000202587
-0.00231719
0.000307435
-0.00311393
0.00042838
-0.00397042
0.000561266
-0.00488045
0.000701274
-0.00583439
0.00084318
-0.00681946
-0.00781917
0.000981704
1.3899e-05
-0.000315511
5.19473e-05
-0.000950094
0.000112525
-0.00164375
0.000193445
-0.00239811
0.000291815
-0.0032123
0.000403993
-0.0040826
0.000525622
-0.00500208
0.000651817
-0.00596059
0.000777462
-0.0069451
-0.0079393
0.000897587
1.33899e-05
-0.000328901
4.97239e-05
-0.000986428
0.000107085
-0.00170111
0.000182972
-0.002474
0.00027419
-0.00330352
0.000376842
-0.00418525
0.000486414
-0.00511166
0.000598007
-0.00607218
0.000706669
-0.00705376
-0.00804041
0.000807786
1.27844e-05
-0.000341686
4.71443e-05
-0.00102079
0.000100878
-0.00175485
0.000171189
-0.00254431
0.000254606
-0.00338694
0.000347013
-0.00427766
0.000443785
-0.00520843
0.000540065
-0.00616846
0.000631113
-0.00714481
-0.00812202
0.00071272
1.2082e-05
-0.000353768
4.42098e-05
-0.00105292
9.39148e-05
-0.00180455
0.000158126
-0.00260852
0.000233126
-0.00346194
0.000314618
-0.00435915
0.000397913
-0.00529172
0.000478245
-0.00624879
0.000551141
-0.00721771
-0.00818372
0.000612842
1.12834e-05
-0.000365051
4.09271e-05
-0.00108256
8.62155e-05
-0.00184984
0.00014383
-0.00266613
0.000209837
-0.00352794
0.0002798
-0.00442911
0.000349012
-0.00536094
0.000412845
-0.00631263
0.000467142
-0.007272
-0.00822522
0.000508642
1.03907e-05
-0.000375442
3.73074e-05
-0.00110948
7.78116e-05
-0.00189034
0.000128365
-0.00271669
0.000184852
-0.00358443
0.000242736
-0.00448699
0.000297331
-0.00541553
0.000344199
-0.00635949
0.000379538
-0.00730734
-0.00824632
0.000400638
9.40751e-06
-0.000384849
3.33673e-05
-0.00113344
6.87444e-05
-0.00192572
0.000111812
-0.00275975
0.000158308
-0.00363093
0.000203631
-0.00453232
0.000243159
-0.00545506
0.000272675
-0.00638901
0.000288782
-0.00732345
-0.0082469
0.000289362
8.33892e-06
-0.000393188
2.91281e-05
-0.00115423
5.90655e-05
-0.00195566
9.4268e-05
-0.00279496
0.000130363
-0.00366702
0.00016272
-0.00456467
0.000186814
-0.00547915
0.000198677
-0.00640087
0.000195334
-0.00732011
-0.00822691
0.000175349
7.19135e-06
-0.000400379
2.4616e-05
-0.00117165
4.8836e-05
-0.00197988
7.58465e-05
-0.00282197
0.000101199
-0.00369238
0.000120268
-0.00458374
0.000128649
-0.00548753
0.000122663
-0.00639489
9.9648e-05
-0.00729709
-0.0081862
5.89347e-05
5.97254e-06
-0.000406352
1.98613e-05
-0.00118554
3.81251e-05
-0.00199814
5.66732e-05
-0.00284052
7.10158e-05
-0.00370672
7.65572e-05
-0.00458928
6.90294e-05
-0.00548001
4.51255e-05
-0.00637098
3.46435e-06
-0.00725543
-0.00812393
-5.88054e-05
4.69133e-06
-0.000411043
1.48978e-05
-0.00119575
2.70094e-05
-0.00201025
3.68857e-05
-0.00285039
4.0029e-05
-0.00370986
3.18957e-05
-0.00458115
8.35606e-06
-0.00545647
-3.37009e-05
-0.00632893
-9.59582e-05
-0.00719317
-0.00804245
-0.000177443
3.35745e-06
-0.000414401
9.762e-06
-0.00120215
1.55702e-05
-0.00201606
1.66299e-05
-0.00285145
8.46964e-06
-0.0037017
-1.33835e-05
-0.0045593
-5.29315e-05
-0.00541692
-0.000113055
-0.0062688
-0.00019485
-0.00711138
-0.00794049
-0.000296804
1.98135e-06
-0.000416382
4.49197e-06
-0.00120466
3.89186e-06
-0.00201546
-3.94356e-06
-0.00284362
-2.34249e-05
-0.00368222
-5.89353e-05
-0.00452379
-0.000114364
-0.00536149
-0.000192415
-0.00619075
-0.000293769
-0.00701002
-0.00781814
-0.000416124
5.74448e-07
-0.000416957
-8.74579e-07
-0.00120321
-7.94171e-06
-0.00200839
-2.46852e-05
-0.00282687
-5.54158e-05
-0.00365149
-0.000104408
-0.00447479
-0.000175464
-0.00529043
-0.000271207
-0.00609501
-0.00039207
-0.00688916
-0.00767534
-0.000534873
-8.61373e-07
-0.000416095
-6.30003e-06
-0.00119777
-1.98495e-05
-0.00199484
-4.54509e-05
-0.00280127
-8.7273e-05
-0.00360967
-0.000149456
-0.00441261
-0.000235737
-0.00520415
-0.000348788
-0.00598196
-0.000489064
-0.00674888
-0.00751189
-0.000652506
-2.3032e-06
-0.000413792
-1.1751e-05
-0.00118832
-3.17576e-05
-0.00197484
-6.6109e-05
-0.00276692
-0.000118785
-0.00355699
-0.00019375
-0.00433765
-0.000294686
-0.00510322
-0.000424455
-0.00585219
-0.000583954
-0.00658939
-0.00732737
-0.000768482
-3.75161e-06
-0.00041004
-1.7197e-05
-0.00117488
-4.36008e-05
-0.00194843
-8.65464e-05
-0.00272397
-0.000149769
-0.00349377
-0.000237002
-0.00425041
-0.000351836
-0.00498838
-0.000497451
-0.00570657
-0.000675791
-0.00641105
-0.00712092
-0.000882235
-5.19799e-06
-0.000404842
-2.26126e-05
-0.00115746
-5.53254e-05
-0.00191572
-0.000106673
-0.00267263
-0.000180088
-0.00342035
-0.000278988
-0.00415151
-0.000406775
-0.00486059
-0.000566981
-0.00554637
-0.00076335
-0.00621468
-0.00689148
-0.000992795
-6.63638e-06
-0.000398206
-2.79766e-05
-0.00113612
-6.68892e-05
-0.00187681
-0.000126425
-0.00261309
-0.000209656
-0.00333712
-0.000319583
-0.00404159
-0.000459222
-0.00472095
-0.000632206
-0.00537338
-0.000844496
-0.00600239
-0.0066369
-0.00109907
-8.06185e-06
-0.000390144
-3.32714e-05
-0.00111092
-7.82598e-05
-0.00183182
-0.000145762
-0.00254559
-0.000238447
-0.00324444
-0.000358806
-0.00392123
-0.000509212
-0.00457055
-0.0006926
-0.00519
-0.000915929
-0.00577906
-0.00634995
-0.00120288
-9.46736e-06
-0.000380677
-3.84765e-05
-0.00108191
-8.94032e-05
-0.00178089
-0.00016465
-0.00247034
-0.000266471
-0.00314262
-0.000396825
-0.00379087
-0.000557344
-0.00441003
-0.000749433
-0.00499791
-0.000972826
-0.00555567
-0.00609198
-0.00123079
-1.08527e-05
-0.000369824
-4.35838e-05
-0.00104917
-0.000100302
-0.00172418
-0.000183074
-0.00238757
-0.000293752
-0.00303194
-0.000433835
-0.00365079
-0.000604414
-0.00423945
-0.00080624
-0.00479608
-0.00103953
-0.00532237
-0.00582233
-0.00130919
-1.22096e-05
-0.000357615
-4.85692e-05
-0.00101282
-0.000110912
-0.00166183
-0.00020097
-0.00229751
-0.000320219
-0.00291269
-0.000469762
-0.00350125
-0.000650314
-0.0040589
-0.000862365
-0.00458403
-0.00110648
-0.00507826
-0.00554364
-0.00138517
-1.35313e-05
-0.000344083
-5.34098e-05
-0.000972937
-0.000121188
-0.00159405
-0.000218266
-0.00220043
-0.000345755
-0.0027852
-0.000504393
-0.00334261
-0.000694564
-0.00386873
-0.00091646
-0.00436214
-0.00117037
-0.00482435
-0.00525675
-0.00145727
-1.48107e-05
-0.000329273
-5.80812e-05
-0.000929666
-0.00013108
-0.00152106
-0.000234877
-0.00209664
-0.000370225
-0.00264985
-0.000537507
-0.00317533
-0.000736762
-0.00366947
-0.000967826
-0.00413107
-0.00123052
-0.00456165
-0.00496256
-0.00152471
-1.60403e-05
-0.000313232
-6.25588e-05
-0.000883148
-0.000140538
-0.00144308
-0.000250721
-0.00198645
-0.000393505
-0.00250707
-0.000568917
-0.00299992
-0.000776642
-0.00346175
-0.00101613
-0.00389158
-0.00128672
-0.00429106
-0.00466182
-0.00158746
-1.7213e-05
-0.000296019
-6.68189e-05
-0.000833542
-0.000149517
-0.00136038
-0.000265723
-0.00187025
-0.000415488
-0.0023573
-0.000598483
-0.00281692
-0.000814036
-0.00324619
-0.00106122
-0.0036444
-0.00133893
-0.00401335
-0.00435507
-0.00164569
-1.83222e-05
-0.000277697
-7.08402e-05
-0.000781024
-0.000157974
-0.00127324
-0.00027982
-0.0017484
-0.000436088
-0.00220103
-0.000626102
-0.00262691
-0.000848844
-0.00302345
-0.00110303
-0.00339021
-0.00138721
-0.00372918
-0.00404275
-0.00169953
-1.93623e-05
-0.000258335
-7.46041e-05
-0.000725782
-0.000165874
-0.00118198
-0.000292958
-0.00162132
-0.000455239
-0.00203875
-0.000651706
-0.00243044
-0.000881014
-0.00279415
-0.00114157
-0.00312965
-0.00143162
-0.00343912
-0.00372524
-0.00174913
-2.03283e-05
-0.000238007
-7.80949e-05
-0.000668015
-0.000173187
-0.00108688
-0.000305097
-0.00148941
-0.000472892
-0.00187096
-0.000675249
-0.00222808
-0.000910524
-0.00255887
-0.00117685
-0.00286333
-0.00147225
-0.00314372
-0.0034029
-0.00179459
-2.12163e-05
-0.00021679
-8.12994e-05
-0.000607932
-0.000179891
-0.000988292
-0.000316203
-0.0013531
-0.000489012
-0.00169815
-0.000696704
-0.00202039
-0.000937365
-0.00231821
-0.0012089
-0.00259179
-0.00150917
-0.00284345
-0.00307609
-0.00183598
-2.20229e-05
-0.000194767
-8.4207e-05
-0.000545748
-0.000185965
-0.000886534
-0.000326251
-0.00121281
-0.000503571
-0.00152083
-0.00071605
-0.00180791
-0.000961535
-0.00207272
-0.00123774
-0.00231559
-0.0015424
-0.00253878
-0.00274516
-0.00187333
-2.27454e-05
-0.000172022
-8.68091e-05
-0.000481684
-0.000191395
-0.000781949
-0.000335221
-0.00106898
-0.000516551
-0.0013395
-0.000733275
-0.00159119
-0.000983035
-0.00182296
-0.00126338
-0.00203524
-0.00157198
-0.00223019
-0.00241051
-0.00190663
-2.33816e-05
-0.00014864
-8.90988e-05
-0.000415967
-0.000196168
-0.00067488
-0.000343098
-0.000922052
-0.000527937
-0.00115466
-0.00074837
-0.00137076
-0.00100186
-0.00156947
-0.00128584
-0.00175127
-0.0015979
-0.00191813
-0.00207253
-0.00193588
-2.39299e-05
-0.000124711
-9.10705e-05
-0.000348827
-0.000200275
-0.000565676
-0.00034987
-0.000772457
-0.000537716
-0.000966814
-0.000761326
-0.00114715
-0.00101802
-0.00131278
-0.00130511
-0.00146417
-0.00162017
-0.00160307
-0.00173166
-0.00196104
-2.43887e-05
-0.000100322
-9.27197e-05
-0.000280496
-0.000203708
-0.000454688
-0.000355527
-0.000620638
-0.00054588
-0.000776461
-0.000772135
-0.000920891
-0.00103149
-0.00105342
-0.00132119
-0.00117447
-0.00163876
-0.0012855
-0.00138833
-0.00198209
-2.47571e-05
-7.55647e-05
-9.40431e-05
-0.00021121
-0.000206461
-0.000342269
-0.000360061
-0.000467039
-0.00055242
-0.000584102
-0.000780791
-0.00069252
-0.00104228
-0.000791935
-0.00133407
-0.000882687
-0.00165366
-0.000965912
-0.00104301
-0.00199898
-2.50341e-05
-5.05307e-05
-9.50379e-05
-0.000141206
-0.00020853
-0.000228777
-0.000363467
-0.000312102
-0.000557331
-0.000390238
-0.000787289
-0.000462562
-0.00105038
-0.000528846
-0.00134373
-0.000589332
-0.00166485
-0.000644794
-0.000696181
-0.00201168
-2.5219e-05
-2.53116e-05
-9.57021e-05
-7.07229e-05
-0.000209911
-0.000114568
-0.000365739
-0.000156274
-0.000560607
-0.00019537
-0.000791624
-0.000231546
-0.00105578
-0.00026469
-0.00135018
-0.000294928
-0.00167232
-0.000322653
-0.000348344
-0.00202016
-2.53116e-05
-1.6618e-11
-9.60344e-05
-4.13337e-11
-0.000210602
-5.55929e-11
-0.000366876
-6.2189e-11
-0.000562246
-6.5888e-11
-0.000793792
-6.97848e-11
-0.00105848
-7.51735e-11
-0.00135341
-8.1879e-11
-0.00167606
-8.9089e-11
-9.6354e-11
-0.00202441
-2.53116e-05
2.53116e-05
-9.60344e-05
7.07228e-05
-0.000210602
0.000114568
-0.000366876
0.000156274
-0.000562246
0.00019537
-0.000793792
0.000231546
-0.00105848
0.00026469
-0.00135341
0.000294928
-0.00167606
0.000322653
0.000348344
-0.00202441
-2.5219e-05
5.05306e-05
-9.57021e-05
0.000141206
-0.000209911
0.000228777
-0.000365739
0.000312102
-0.000560607
0.000390237
-0.000791624
0.000462562
-0.00105578
0.000528846
-0.00135018
0.000589332
-0.00167232
0.000644793
0.00069618
-0.00202016
-2.50341e-05
7.55647e-05
-9.50379e-05
0.00021121
-0.00020853
0.000342269
-0.000363467
0.000467038
-0.000557331
0.000584102
-0.000787289
0.00069252
-0.00105038
0.000791935
-0.00134373
0.000882687
-0.00166485
0.000965912
0.00104301
-0.00201168
-2.47571e-05
0.000100322
-9.40431e-05
0.000280496
-0.000206461
0.000454687
-0.000360061
0.000620638
-0.00055242
0.000776461
-0.000780791
0.000920891
-0.00104228
0.00105342
-0.00133407
0.00117447
-0.00165366
0.0012855
0.00138833
-0.00199898
-2.43887e-05
0.000124711
-9.27197e-05
0.000348827
-0.000203708
0.000565676
-0.000355527
0.000772457
-0.00054588
0.000966814
-0.000772135
0.00114715
-0.00103149
0.00131278
-0.00132119
0.00146417
-0.00163876
0.00160307
0.00173166
-0.00198209
-2.39299e-05
0.00014864
-9.10705e-05
0.000415967
-0.000200275
0.00067488
-0.00034987
0.000922052
-0.000537716
0.00115466
-0.000761326
0.00137076
-0.00101802
0.00156947
-0.00130511
0.00175126
-0.00162017
0.00191813
0.00207253
-0.00196104
-2.33816e-05
0.000172022
-8.90988e-05
0.000481684
-0.000196168
0.000781949
-0.000343098
0.00106898
-0.000527937
0.0013395
-0.00074837
0.00159119
-0.00100186
0.00182296
-0.00128584
0.00203524
-0.0015979
0.00223019
0.00241051
-0.00193588
-2.27454e-05
0.000194767
-8.68091e-05
0.000545748
-0.000191395
0.000886534
-0.000335221
0.00121281
-0.000516551
0.00152083
-0.000733275
0.00180791
-0.000983035
0.00207272
-0.00126338
0.00231559
-0.00157198
0.00253878
0.00274516
-0.00190663
-2.20229e-05
0.00021679
-8.4207e-05
0.000607932
-0.000185965
0.000988292
-0.000326251
0.0013531
-0.000503571
0.00169815
-0.00071605
0.00202039
-0.000961535
0.00231821
-0.00123774
0.00259179
-0.0015424
0.00284345
0.00307609
-0.00187333
-2.12163e-05
0.000238007
-8.12994e-05
0.000668015
-0.000179891
0.00108688
-0.000316203
0.00148941
-0.000489012
0.00187096
-0.000696704
0.00222808
-0.000937365
0.00255887
-0.0012089
0.00286333
-0.00150917
0.00314372
0.0034029
-0.00183598
-2.03283e-05
0.000258335
-7.80949e-05
0.000725782
-0.000173187
0.00118198
-0.000305097
0.00162132
-0.000472892
0.00203875
-0.000675249
0.00243044
-0.000910524
0.00279415
-0.00117685
0.00312965
-0.00147225
0.00343912
0.00372524
-0.00179459
-1.93623e-05
0.000277697
-7.46041e-05
0.000781024
-0.000165874
0.00127324
-0.000292958
0.0017484
-0.000455239
0.00220103
-0.000651706
0.00262691
-0.000881014
0.00302345
-0.00114157
0.00339021
-0.00143162
0.00372917
0.00404275
-0.00174913
-1.83222e-05
0.000296019
-7.08402e-05
0.000833542
-0.000157974
0.00136038
-0.00027982
0.00187025
-0.000436088
0.0023573
-0.000626102
0.00281692
-0.000848844
0.00324619
-0.00110303
0.0036444
-0.00138721
0.00401335
0.00435507
-0.00169953
-1.7213e-05
0.000313232
-6.68189e-05
0.000883148
-0.000149517
0.00144308
-0.000265723
0.00198645
-0.000415488
0.00250707
-0.000598483
0.00299991
-0.000814036
0.00346175
-0.00106122
0.00389158
-0.00133893
0.00429106
0.00466182
-0.00164569
-1.60403e-05
0.000329273
-6.25588e-05
0.000929666
-0.000140538
0.00152106
-0.000250721
0.00209664
-0.000393505
0.00264985
-0.000568917
0.00317533
-0.000776642
0.00366947
-0.00101613
0.00413107
-0.00128672
0.00456165
0.00496256
-0.00158747
-1.48107e-05
0.000344083
-5.80812e-05
0.000972937
-0.00013108
0.00159405
-0.000234877
0.00220043
-0.000370225
0.0027852
-0.000537507
0.00334261
-0.000736762
0.00386873
-0.000967826
0.00436214
-0.00123052
0.00482435
0.00525675
-0.00152471
-1.35313e-05
0.000357615
-5.34098e-05
0.00101282
-0.000121188
0.00166183
-0.000218266
0.00229751
-0.000345755
0.00291269
-0.000504393
0.00350125
-0.000694564
0.0040589
-0.00091646
0.00458403
-0.00117037
0.00507826
0.00554364
-0.00145727
-1.22096e-05
0.000369824
-4.85692e-05
0.00104917
-0.000110912
0.00172418
-0.00020097
0.00238757
-0.000320219
0.00303194
-0.000469762
0.00365079
-0.000650315
0.00423945
-0.000862365
0.00479608
-0.00110648
0.00532237
0.00582233
-0.00138517
-1.08527e-05
0.000380677
-4.35838e-05
0.00108191
-0.000100302
0.00178089
-0.000183074
0.00247034
-0.000293752
0.00314262
-0.000433836
0.00379087
-0.000604414
0.00441003
-0.00080624
0.00499791
-0.00103953
0.00555567
0.00609198
-0.00130919
-9.46736e-06
0.000390144
-3.84765e-05
0.00111092
-8.94032e-05
0.00183182
-0.00016465
0.00254559
-0.000266471
0.00324444
-0.000396825
0.00392123
-0.000557345
0.00457055
-0.000749433
0.00519
-0.000972827
0.00577906
0.00634995
-0.00123079
-8.06186e-06
0.000398206
-3.32714e-05
0.00113612
-7.82598e-05
0.00187681
-0.000145762
0.00261309
-0.000238447
0.00333712
-0.000358806
0.00404159
-0.000509212
0.00472095
-0.0006926
0.00537338
-0.000915929
0.00600239
0.0066369
-0.00120288
-6.63638e-06
0.000404842
-2.79766e-05
0.00115746
-6.68892e-05
0.00191572
-0.000126425
0.00267263
-0.000209656
0.00342035
-0.000319583
0.00415151
-0.000459222
0.00486059
-0.000632206
0.00554637
-0.000844496
0.00621468
0.00689148
-0.00109907
-5.19799e-06
0.00041004
-2.26126e-05
0.00117488
-5.53254e-05
0.00194843
-0.000106673
0.00272397
-0.000180088
0.00349377
-0.000278988
0.00425041
-0.000406775
0.00498838
-0.000566981
0.00570657
-0.00076335
0.00641105
0.00712092
-0.000992795
-3.75161e-06
0.000413792
-1.7197e-05
0.00118832
-4.36008e-05
0.00197484
-8.65465e-05
0.00276692
-0.000149769
0.00355699
-0.000237002
0.00433765
-0.000351836
0.00510322
-0.000497451
0.00585219
-0.000675791
0.00658939
0.00732737
-0.000882235
-2.3032e-06
0.000416095
-1.1751e-05
0.00119777
-3.17576e-05
0.00199484
-6.61091e-05
0.00280127
-0.000118785
0.00360967
-0.00019375
0.00441261
-0.000294686
0.00520415
-0.000424455
0.00598196
-0.000583954
0.00674888
0.00751189
-0.000768482
-8.61376e-07
0.000416957
-6.30004e-06
0.00120321
-1.98496e-05
0.00200839
-4.54509e-05
0.00282687
-8.72731e-05
0.00365149
-0.000149456
0.00447479
-0.000235737
0.00529043
-0.000348788
0.00609501
-0.000489064
0.00688916
0.00767534
-0.000652506
5.74445e-07
0.000416382
-8.7459e-07
0.00120466
-7.94173e-06
0.00201546
-2.46853e-05
0.00284362
-5.54159e-05
0.00368222
-0.000104408
0.00452379
-0.000175464
0.00536149
-0.000271207
0.00619075
-0.000392071
0.00701002
0.00781814
-0.000534873
1.98135e-06
0.000414401
4.49196e-06
0.00120215
3.89184e-06
0.00201606
-3.9436e-06
0.00285145
-2.34249e-05
0.0037017
-5.89353e-05
0.0045593
-0.000114364
0.00541692
-0.000192415
0.0062688
-0.000293769
0.00711138
0.00794049
-0.000416124
3.35745e-06
0.000411043
9.76199e-06
0.00119575
1.55702e-05
0.00201025
1.66299e-05
0.00285039
8.46959e-06
0.00370986
-1.33836e-05
0.00458115
-5.29315e-05
0.00545647
-0.000113055
0.00632893
-0.000194851
0.00719317
0.00804245
-0.000296804
4.69133e-06
0.000406352
1.48978e-05
0.00118554
2.70094e-05
0.00199814
3.68856e-05
0.00284052
4.0029e-05
0.00370672
3.18956e-05
0.00458928
8.35599e-06
0.00548001
-3.3701e-05
0.00637098
-9.59583e-05
0.00725543
0.00812393
-0.000177443
5.97254e-06
0.000400379
1.98613e-05
0.00117165
3.81251e-05
0.00197988
5.66732e-05
0.00282197
7.10158e-05
0.00369238
7.65571e-05
0.00458374
6.90294e-05
0.00548753
4.51254e-05
0.00639489
3.46427e-06
0.00729709
0.0081862
-5.88054e-05
7.19135e-06
0.000393188
2.4616e-05
0.00115423
4.88359e-05
0.00195566
7.58464e-05
0.00279496
0.000101199
0.00366702
0.000120268
0.00456467
0.000128649
0.00547915
0.000122663
0.00640087
9.96479e-05
0.00732011
0.00822691
5.89346e-05
8.33892e-06
0.000384849
2.91281e-05
0.00113344
5.90655e-05
0.00192572
9.4268e-05
0.00275975
0.000130363
0.00363093
0.00016272
0.00453232
0.000186814
0.00545506
0.000198677
0.00638901
0.000195334
0.00732345
0.0082469
0.000175349
9.40751e-06
0.000375442
3.33673e-05
0.00110948
6.87443e-05
0.00189034
0.000111812
0.00271669
0.000158308
0.00358443
0.00020363
0.00448699
0.000243159
0.00541553
0.000272675
0.00635949
0.000288781
0.00730734
0.00824632
0.000289362
1.03907e-05
0.000365051
3.73074e-05
0.00108256
7.78115e-05
0.00184984
0.000128365
0.00266613
0.000184852
0.00352794
0.000242736
0.00442911
0.000297331
0.00536094
0.000344199
0.00631263
0.000379538
0.007272
0.00822522
0.000400638
1.12834e-05
0.000353768
4.09271e-05
0.00105292
8.62155e-05
0.00180455
0.00014383
0.00260852
0.000209837
0.00346194
0.0002798
0.00435915
0.000349012
0.00529172
0.000412845
0.00624879
0.000467141
0.00721771
0.00818372
0.000508642
1.2082e-05
0.000341686
4.42098e-05
0.00102079
9.39148e-05
0.00175485
0.000158126
0.00254431
0.000233126
0.00338694
0.000314618
0.00427766
0.000397913
0.00520843
0.000478245
0.00616846
0.000551141
0.00714481
0.00812202
0.000612841
1.27844e-05
0.000328901
4.71442e-05
0.000986428
0.000100878
0.00170111
0.000171189
0.002474
0.000254606
0.00330352
0.000347013
0.00418525
0.000443785
0.00511166
0.000540065
0.00607218
0.000631113
0.00705376
0.00804041
0.00071272
1.33898e-05
0.000315511
4.97239e-05
0.000950094
0.000107085
0.00164375
0.000182972
0.00239811
0.00027419
0.0032123
0.000376842
0.0040826
0.000486413
0.00500208
0.000598007
0.00596059
0.000706669
0.0069451
0.0079393
0.000807786
1.3899e-05
0.000301612
5.19473e-05
0.000912046
0.000112525
0.00158317
0.000193445
0.00231719
0.000291815
0.00311393
0.000403993
0.00397042
0.000525622
0.00488046
0.000651817
0.00583439
0.000777462
0.00681946
0.00781917
0.000897587
1.43118e-05
0.000287301
5.38136e-05
0.000872544
0.000117192
0.00151979
0.000202587
0.0022318
0.000307435
0.00300908
0.00042838
0.00384948
0.000561266
0.00474757
0.000701274
0.00569438
0.00084318