/*--------------------------------*- C++ -*----------------------------------*\
  =========                 |
  \\      /  F ield         | OpenFOAM: The Open Source CFD Toolbox
   \\    /   O peration     | Website:  https://openfoam.org
    \\  /    A nd           | Version:  7
     \\/     M anipulation  |
\*---------------------------------------------------------------------------*/
FoamFile
{
    version     2.0;
    format      ascii;
    class       volVectorField;
    location    "5";
    object      U;
}
// * * * * * * * * * * * * * * * * * * * * * * * * * * * * * * * * * * * * * //

dimensions      [0 1 -1 0 0 0 0];

internalField   nonuniform List<vector> 
8500
(
(-0.000395694 0.000270353 -1.01905e-21)
(-0.00166366 0.000478576 9.67674e-21)
(-0.00344406 0.000450653 2.01551e-20)
(-0.00475847 0.000253826 -5.26729e-22)
(-0.00512213 -5.86388e-05 -7.62284e-21)
(-0.0042136 -0.000438832 -7.73091e-21)
(-0.00185135 -0.000842819 1.39676e-21)
(0.00198495 -0.00122902 2.31118e-20)
(0.00718258 -0.00156254 -1.32533e-20)
(0.0135783 -0.00180486 4.86736e-21)
(-0.000429556 0.000801723 -1.60494e-20)
(-0.00168451 0.00141337 9.51668e-21)
(-0.00336303 0.00132182 -3.41833e-20)
(-0.00451063 0.000727264 -3.30349e-20)
(-0.00465311 -0.000211297 7.3906e-21)
(-0.00347763 -0.00135085 6.13444e-21)
(-0.000809616 -0.00256008 -9.05343e-21)
(0.00336296 -0.00371471 7.99396e-21)
(0.00892237 -0.00470934 1.66494e-20)
(0.0157373 -0.00542532 1.05307e-20)
(-0.000494624 0.00130531 -1.60447e-20)
(-0.00171962 0.00228165 -1.73459e-20)
(-0.00319172 0.0021034 1.74919e-20)
(-0.00400406 0.00109916 5.62305e-20)
(-0.00370342 -0.000468803 2.90377e-20)
(-0.00199405 -0.0023645 1.34791e-20)
(0.00128475 -0.00437079 -9.50024e-21)
(0.00612878 -0.00628179 -3.82507e-20)
(0.0124103 -0.00791995 1.79968e-20)
(0.0200618 -0.00907682 -1.25961e-19)
(-0.000585632 0.00176323 -1.54688e-23)
(-0.00175587 0.00304065 5.06269e-21)
(-0.00291174 0.00273799 -3.47545e-20)
(-0.00321707 0.00130472 -2.00819e-20)
(-0.00224988 -0.000897635 -2.73641e-20)
(0.000260248 -0.00354376 -2.65416e-20)
(0.00445349 -0.00633345 7.66966e-20)
(0.0103019 -0.00898072 -5.43918e-20)
(0.017663 -0.0112337 -7.42833e-20)
(0.0265652 -0.0127774 6.27536e-20)
(-0.00069478 0.00215854 2.49718e-20)
(-0.00177379 0.00364991 -1.68743e-20)
(-0.00249573 0.00317156 -4.53016e-21)
(-0.00211738 0.0012835 3.26713e-21)
(-0.000257957 -0.00155917 2.67931e-20)
(0.00331964 -0.00494694 5.21117e-20)
(0.0087289 -0.00850059 -2.05578e-20)
(0.0159111 -0.0118563 6.50946e-20)
(0.0247049 -0.0146852 6.31225e-20)
(0.035267 -0.0165412 -4.09094e-20)
(-0.000811845 0.00247555 7.28732e-20)
(-0.00174778 0.00407212 -4.72875e-21)
(-0.00190765 0.00335475 4.39835e-20)
(-0.000662416 0.000980979 -3.92475e-20)
(0.0023179 -0.00250773 -8.7615e-20)
(0.00722947 -0.00662447 5.85173e-20)
(0.0141535 -0.0109164 1.34833e-19)
(0.0229943 -0.0149456 2.77049e-20)
(0.0335679 -0.0183022 7.6978e-21)
(0.0461928 -0.0203771 4.40789e-20)
(-0.000924323 0.0027001 -1.31095e-19)
(-0.00164641 0.00427379 2.61933e-20)
(-0.00110314 0.003244 -1.75633e-20)
(0.00120029 0.000350142 -6.4768e-20)
(0.00553386 -0.00378872 2.93409e-21)
(0.0120456 -0.00861668 -2.17435e-19)
(0.0207794 -0.0136145 -2.0805e-19)
(0.0315976 -0.0182748 -1.62345e-19)
(0.0442907 -0.0221035 9.43744e-20)
(0.0593737 -0.0242869 -8.86743e-21)
(-0.00101757 0.00281975 8.6119e-20)
(-0.00143275 0.00422601 -8.05673e-20)
(-2.99541e-05 0.00280257 4.85573e-20)
(0.00353258 -0.000647207 1.10532e-19)
(0.00945615 -0.00543689 -5.40373e-20)
(0.017834 -0.0109517 4.4022e-20)
(0.028668 -0.0166151 1.97767e-20)
(0.0417748 -0.0218573 1.52064e-19)
(0.0569179 -0.0260969 -1.42506e-20)
(0.0748454 -0.0282645 -4.16474e-20)
(-0.00107491 0.0028239 2.34803e-20)
(-0.00106481 0.00390494 9.28171e-20)
(0.00137143 0.0020014 -1.54847e-19)
(0.00640501 -0.00203921 7.90329e-20)
(0.0141604 -0.00747477 8.95406e-20)
(0.0246696 -0.0136435 1.57251e-19)
(0.0378889 -0.0199229 1.02256e-19)
(0.0535862 -0.0256908 1.27971e-19)
(0.0714986 -0.0302765 6.87412e-21)
(0.0926472 -0.032294 1.98257e-20)
(-0.00107776 0.00270406 -9.35833e-20)
(-0.0004958 0.00329215 -7.99699e-20)
(0.00316715 0.000819856 1.46885e-19)
(0.009896 -0.00384296 -1.8271e-20)
(0.0197306 -0.00991142 -1.22568e-19)
(0.032636 -0.0166902 3.92232e-20)
(0.0485191 -0.0235246 9.32047e-20)
(0.0670979 -0.0297538 -1.89482e-19)
(0.0880854 -0.0346196 1.39376e-19)
(0.11282 -0.0363482 9.75422e-20)
(-0.00100595 0.00245387 3.77913e-20)
(0.000325141 0.00237497 7.04139e-20)
(0.00542919 -0.000753719 2.42212e-19)
(0.0140908 -0.00606387 -2.00111e-19)
(0.0262584 -0.0127415 6.07952e-20)
(0.0418241 -0.0200726 8.75764e-20)
(0.0606425 -0.0273867 -7.19002e-20)
(0.0823804 -0.0340031 1.89396e-19)
(0.106733 -0.0390837 -1.64885e-19)
(0.135406 -0.0403871 1.09372e-19)
(-0.000837709 0.00206904 9.20252e-21)
(0.00145242 0.00114693 -2.93629e-19)
(0.00823423 -0.00272166 -1.90468e-19)
(0.0190801 -0.00869528 1.60983e-19)
(0.033841 -0.0159452 1.1918e-19)
(0.0523311 -0.0237538 -2.67271e-20)
(0.0743482 -0.0314541 -1.19674e-19)
(0.099508 -0.0383702 -3.63983e-20)
(0.127495 -0.0436013 2.11401e-19)
(0.160443 -0.0443549 -2.85974e-20)
(-0.000549909 0.00154755 -1.25866e-19)
(0.00294322 -0.000392076 3.11932e-19)
(0.0116623 -0.00507678 5.7246e-20)
(0.0249582 -0.0117186 -2.9113e-19)
(0.0425799 -0.0194879 5.17599e-20)
(0.0642583 -0.0276793 -3.4343e-19)
(0.0897301 -0.0356491 2.80559e-19)
(0.118558 -0.042758 -7.39521e-20)
(0.150426 -0.0480743 -4.71061e-19)
(0.187963 -0.0481758 -1.38848e-19)
(-0.000118359 0.000889847 4.58042e-20)
(0.00485647 -0.00223554 -1.9995e-19)
(0.015795 -0.00780235 6.09948e-21)
(0.0318209 -0.0151036 6.2392e-20)
(0.0525779 -0.0233223 -3.24686e-19)
(0.0777099 -0.0317787 3.56713e-20)
(0.106886 -0.0398724 -4.13248e-19)
(0.139612 -0.0470384 -5.78848e-20)
(0.17558 -0.0523649 3.79185e-19)
(0.217989 -0.0517452 1.53274e-19)
(0.000481805 9.89921e-05 3.91622e-20)
(0.0072515 -0.00437 9.61061e-20)
(0.0207133 -0.0108722 8.79115e-21)
(0.0397621 -0.0188096 6.87856e-20)
(0.0639361 -0.0273898 2.2482e-19)
(0.092789 -0.035969 3.28701e-19)
(0.125915 -0.0440067 -1.41257e-20)
(0.162756 -0.0510523 2.82766e-20)
(0.203015 -0.0562875 -6.77477e-20)
(0.250531 -0.0549199 1.39455e-19)
(0.00127554 -0.000819011 -7.84408e-20)
(0.0101864 -0.00677472 1.07181e-19)
(0.0264946 -0.0142508 2.62967e-20)
(0.0488702 -0.0227867 1.69878e-19)
(0.0767491 -0.031624 -1.67407e-19)
(0.109594 -0.0401607 -3.33522e-19)
(0.146918 -0.0479247 1.54244e-19)
(0.188086 -0.0546151 -7.84516e-20)
(0.232806 -0.0596024 -1.41452e-19)
(0.285601 -0.0575056 3.11477e-19)
(0.00228714 -0.00185483 1.58402e-19)
(0.0137158 -0.00942121 -1.42683e-19)
(0.0332093 -0.0178936 -3.74384e-21)
(0.0592236 -0.0269768 -2.30781e-20)
(0.091099 -0.0359544 1.80894e-19)
(0.128213 -0.0442654 2.78957e-19)
(0.169989 -0.0515015 -8.61904e-20)
(0.215705 -0.0575292 5.70305e-20)
(0.265049 -0.062004 8.80146e-20)
(0.323217 -0.0591988 -4.50108e-19)
(0.00353921 -0.00299537 1.15294e-20)
(0.0178885 -0.0122728 3.83249e-19)
(0.0409175 -0.0217466 -2.96405e-20)
(0.0708849 -0.0313152 -5.29667e-20)
(0.107048 -0.0403103 -1.76583e-19)
(0.14871 -0.0482056 2.0289e-19)
(0.195209 -0.0546357 -1.96843e-19)
(0.245724 -0.0596053 1.5341e-19)
(0.299856 -0.0630594 -4.12954e-20)
(0.363301 -0.0593445 2.91841e-19)
(0.00505155 -0.00422337 -2.14441e-19)
(0.022745 -0.0152839 -2.79225e-19)
(0.0496644 -0.0257466 -1.61102e-19)
(0.0838953 -0.0357304 3.90125e-19)
(0.124631 -0.0446237 -1.64369e-19)
(0.17112 -0.0519275 -1.26831e-19)
(0.222642 -0.0572844 -1.07943e-19)
(0.278303 -0.0607217 2.19527e-19)
(0.337463 -0.0621949 -5.20679e-19)
(0.405534 -0.0566843 3.44192e-19)
(0.00683995 -0.00551709 -2.18276e-20)
(0.0283148 -0.0184 2.20869e-20)
(0.0594768 -0.0298195 5.01577e-21)
(0.0982678 -0.0401428 -2.31869e-19)
(0.143838 -0.0488285 1.04067e-19)
(0.195418 -0.0554085 2.31526e-20)
(0.252295 -0.05951 2.17176e-19)
(0.313693 -0.0609922 -2.76784e-19)
(0.378865 -0.0592743 2.92197e-19)
(0.451135 -0.0508312 -1.56887e-19)
(0.00891521 -0.00685035 -9.20562e-20)
(0.0346145 -0.021557 -9.41512e-20)
(0.0703607 -0.0338795 1.45947e-19)
(0.113983 -0.0444607 1.22728e-19)
(0.164609 -0.0528511 -7.38545e-20)
(0.221483 -0.0586425 -1.30746e-19)
(0.283979 -0.06148 -3.53476e-19)
(0.351782 -0.0609868 3.14694e-19)
(0.425376 -0.055947 -2.1577e-19)
(0.509328 -0.0461571 3.35613e-20)
(0.0112824 -0.00819276 -1.17474e-19)
(0.0416471 -0.0246816 2.59918e-19)
(0.0823009 -0.0378276 -2.43817e-19)
(0.130991 -0.0485737 -7.20071e-20)
(0.18683 -0.0565911 1.77431e-19)
(0.249081 -0.0615801 -2.95413e-19)
(0.317195 -0.0633101 1.17754e-19)
(0.39117 -0.0614993 -4.18525e-20)
(0.472055 -0.0556087 1.61648e-19)
(0.561532 -0.0500079 -6.53671e-19)
(0.0139407 -0.00951051 1.68016e-19)
(0.0494021 -0.0276925 2.79501e-20)
(0.0952629 -0.0415512 6.0686e-20)
(0.149215 -0.0523493 -9.56165e-20)
(0.210356 -0.0599051 -2.51962e-19)
(0.277943 -0.0640704 -1.90648e-19)
(0.351429 -0.0648165 1.39479e-19)
(0.430822 -0.0621279 5.86664e-20)
(0.516964 -0.0561909 2.37692e-19)
(0.608461 -0.0534805 4.34474e-20)
(0.0168839 -0.0107677 -1.42024e-19)
(0.0578569 -0.0305025 2.2887e-19)
(0.109197 -0.0449276 8.10244e-21)
(0.168564 -0.0556366 1.41524e-19)
(0.235033 -0.062614 -2.27337e-20)
(0.307824 -0.0658877 6.602e-20)
(0.38631 -0.0656532 1.31423e-19)
(0.470298 -0.0621626 -1.29126e-19)
(0.560067 -0.0560263 -7.00711e-20)
(0.652242 -0.0543359 6.81582e-19)
(0.0201009 -0.0119277 1.5785e-19)
(0.0669783 -0.0330218 3.60837e-20)
(0.124041 -0.0478281 1.35888e-19)
(0.188939 -0.0582743 1.03138e-20)
(0.260714 -0.0645218 5.82588e-20)
(0.338522 -0.066783 1.87387e-19)
(0.4216 -0.0654688 -4.33475e-19)
(0.509467 -0.0610539 1.32461e-19)
(0.601795 -0.0543748 -9.3406e-20)
(0.694215 -0.0525373 -2.2386e-19)
(0.0235771 -0.0129543 8.36924e-20)
(0.0767239 -0.0351612 -2.99561e-20)
(0.139722 -0.0501237 -6.19022e-20)
(0.210231 -0.0600999 -2.71608e-19)
(0.287254 -0.0654319 9.42142e-20)
(0.369863 -0.0665155 3.50114e-19)
(0.457135 -0.0639571 -3.53953e-20)
(0.548284 -0.0584085 7.96757e-20)
(0.642461 -0.0508253 2.54619e-19)
(0.734889 -0.0480692 -6.26726e-20)
(0.0272941 -0.0138133 -1.02432e-19)
(0.0870436 -0.0368344 -1.10445e-20)
(0.156158 -0.0516894 -2.75493e-19)
(0.232326 -0.0609574 3.72592e-20)
(0.314509 -0.06516 -3.22923e-19)
(0.401687 -0.0648699 -3.25958e-19)
(0.492773 -0.0608681 2.05578e-20)
(0.586699 -0.0539472 1.94651e-19)
(0.682203 -0.0451296 -4.89832e-19)
(0.774436 -0.0409288 -1.17908e-19)
(0.0312315 -0.0144727 -9.31168e-20)
(0.0978805 -0.0379612 -8.27935e-20)
(0.173259 -0.0524091 2.68356e-19)
(0.255101 -0.0607035 -4.95535e-20)
(0.342331 -0.0635418 9.92066e-20)
(0.433835 -0.0616651 4.04663e-20)
(0.528374 -0.0560108 3.2317e-19)
(0.624635 -0.0474889 -1.92961e-19)
(0.721042 -0.0371694 7.00193e-21)
(0.812863 -0.0311855 3.02201e-19)
(0.0353665 -0.0149033 1.73722e-19)
(0.109171 -0.0384681 -2.06129e-19)
(0.190924 -0.0521779 2.68397e-20)
(0.278426 -0.0592122 -2.99857e-20)
(0.370565 -0.0604389 1.53827e-19)
(0.466143 -0.0567592 -2.34709e-20)
(0.563784 -0.0492526 1.34063e-19)
(0.661976 -0.0389339 5.94785e-20)
(0.758911 -0.0269209 9.02434e-20)
(0.850077 -0.0189588 -4.58993e-20)
(0.0396746 -0.0150794 -1.61989e-19)
(0.120847 -0.0382904 3.21482e-20)
(0.209047 -0.0509048 -7.55575e-21)
(0.302159 -0.0563777 2.67056e-19)
(0.399044 -0.0557413 2.35135e-19)
(0.49843 -0.0500494 1.09273e-19)
(0.59883 -0.0405142 -5.33537e-19)
(0.69857 -0.0282494 1.87407e-19)
(0.795678 -0.014428 2.62378e-20)
(0.885923 -0.0044053 3.11312e-20)
(0.044129 -0.0149782 -1.73175e-19)
(0.132833 -0.0373724 1.74169e-19)
(0.227511 -0.0485139 1.70815e-19)
(0.326149 -0.0521157 -3.40014e-19)
(0.42759 -0.0493685 -4.75759e-20)
(0.530505 -0.0414723 1.43013e-20)
(0.633317 -0.0297644 2.54333e-19)
(0.734233 -0.0154564 -1.33991e-19)
(0.831173 0.000215207 8.39401e-20)
(0.92021 0.012288 -7.96486e-20)
(0.0487015 -0.0145802 1.82789e-19)
(0.145049 -0.0356674 -1.30763e-20)
(0.246191 -0.044945 -1.42537e-20)
(0.350234 -0.0463648 7.55035e-20)
(0.456015 -0.0412699 -8.8876e-20)
(0.562164 -0.031001 2.44872e-20)
(0.667037 -0.0170148 -2.36032e-19)
(0.768762 -0.000620374 1.68167e-19)
(0.865198 0.0168755 -3.97439e-20)
(0.952735 0.0309089 6.75474e-20)
(0.0533615 -0.0138689 6.36164e-21)
(0.157409 -0.0331389 -6.83332e-20)
(0.264955 -0.0401544 -8.26429e-20)
(0.374244 -0.0390863 8.81336e-20)
(0.48412 -0.0314241 3.12969e-19)
(0.593189 -0.0186431 -2.68496e-19)
(0.699769 -0.00231462 -5.58848e-20)
(0.80194 0.0161559 -1.61541e-19)
(0.897545 0.0353895 -1.2544e-19)
(0.983291 0.0512268 -4.49574e-21)
(0.0580762 -0.0128311 -7.15337e-20)
(0.169822 -0.0297599 3.05189e-21)
(0.283663 -0.0341146 2.43427e-20)
(0.398 -0.0302641 -4.24524e-20)
(0.511697 -0.0198375 -1.9788e-19)
(0.623357 -0.00443843 5.20704e-20)
(0.731285 0.0142533 1.48041e-19)
(0.833545 0.0347387 2.84299e-20)
(0.928004 0.0555699 -1.43528e-19)
(1.01168 0.0729979 -1.80127e-19)
(0.0628107 -0.0114572 8.45677e-20)
(0.182193 -0.0255136 -1.08309e-19)
(0.302169 -0.026815 -6.04784e-20)
(0.421316 -0.0199046 -3.63986e-20)
(0.538535 -0.00654352 8.47303e-20)
(0.652442 0.0115438 1.3655e-19)
(0.761355 0.0325768 -8.31154e-22)
(0.863357 0.0549687 6.85982e-20)
(0.956372 0.077211 1.5873e-19)
(1.03773 0.0959709 1.67919e-19)
(0.0675278 -0.0097408 -1.82974e-20)
(0.19442 -0.0203934 1.30101e-19)
(0.320323 -0.0182614 2.23652e-20)
(0.444004 -0.008036 -2.84673e-20)
(0.564418 0.00839895 -1.98865e-20)
(0.680216 0.0292074 -6.05092e-20)
(0.789753 0.0525175 1.12113e-19)
(0.891163 0.076665 -1.39235e-19)
(0.982462 0.100093 -4.52549e-20)
(1.06128 0.119891 -5.17622e-20)
(0.072188 -0.0076793 -6.82176e-20)
(0.206401 -0.0144035 -2.86617e-20)
(0.337969 -0.00847627 9.07662e-20)
(0.465872 0.00529231 -1.71478e-20)
(0.589131 0.0249068 4.12697e-20)
(0.706456 0.048431 4.30411e-20)
(0.816262 0.0739148 -8.23476e-20)
(0.916766 0.0996292 1.44577e-19)
(1.0061 0.123988 5.45053e-21)
(1.08219 0.144504 1.2119e-19)
(0.0767502 -0.0052742 5.12381e-21)
(0.218026 -0.00755904 5.57519e-20)
(0.354951 0.00250112 -3.45721e-20)
(0.486728 0.0200101 -7.4113e-20)
(0.612465 0.0428744 -3.73718e-20)
(0.730946 0.0690712 -3.28988e-20)
(0.840678 0.0965884 6.95557e-20)
(0.939982 0.123649 -2.06657e-20)
(1.02715 0.14866 -1.13533e-19)
(1.10037 0.169559 -5.68414e-21)
(0.0811715 -0.00253123 1.85123e-20)
(0.229189 0.000113492 -1.11502e-20)
(0.371112 0.0146151 3.72546e-20)
(0.506384 0.0360274 3.78537e-20)
(0.634214 0.0621745 7.34623e-21)
(0.753484 0.0909644 -1.8939e-20)
(0.862811 0.120341 -4.46262e-20)
(0.960653 0.148501 3.90622e-23)
(1.04547 0.17387 4.74245e-20)
(1.11573 0.194813 -3.32302e-20)
(0.0854082 0.000539304 9.06302e-22)
(0.239777 0.00857609 -5.72409e-21)
(0.386297 0.0277934 -3.30161e-20)
(0.524656 0.0532348 2.57301e-21)
(0.654184 0.0826605 7.02186e-21)
(0.773879 0.113929 7.60554e-21)
(0.882491 0.144963 1.9588e-20)
(0.97864 0.173956 -1.57347e-20)
(1.06099 0.199379 4.2382e-21)
(1.12824 0.22003 -1.7008e-21)
(0.0894163 0.0039224 -6.52829e-21)
(0.249684 0.0177791 -5.4288e-21)
(0.400355 0.041948 -2.75892e-20)
(0.54137 0.0715051 5.52179e-21)
(0.672194 0.104168 5.12248e-21)
(0.791959 0.137768 1.14612e-20)
(0.899571 0.170232 1.26435e-20)
(0.99383 0.199777 -1.44637e-20)
(1.07361 0.224951 4.11574e-21)
(1.13786 0.244985 -1.4979e-21)
(0.0931519 0.0075982 2.91388e-20)
(0.258803 0.0276612 -1.88226e-20)
(0.41314 0.0569752 4.18619e-20)
(0.556361 0.090694 2.57537e-20)
(0.688076 0.126517 2.03887e-21)
(0.807572 0.162272 -6.44074e-21)
(0.913925 0.195918 -3.9336e-20)
(1.00614 0.225727 -6.10527e-21)
(1.08332 0.250353 3.0535e-20)
(1.14461 0.269462 -6.97603e-21)
(0.0965713 0.0115419 1.92012e-20)
(0.267032 0.0381496 2.12249e-20)
(0.424515 0.0727568 -2.03815e-20)
(0.569477 0.110642 -6.178e-20)
(0.701683 0.149512 -4.98662e-20)
(0.820586 0.187221 2.22207e-20)
(0.925454 0.221787 9.06293e-21)
(1.0155 0.251568 -1.5993e-20)
(1.09008 0.275358 -6.77558e-20)
(1.14852 0.293261 3.67806e-21)
(0.0996333 0.0157238 -4.17642e-20)
(0.274274 0.0491606 -5.84316e-21)
(0.434356 0.0891605 3.67103e-20)
(0.580582 0.131175 4.36703e-20)
(0.712884 0.172948 2.63717e-20)
(0.830894 0.212386 6.99312e-21)
(0.934081 0.247602 -3.73267e-20)
(1.02189 0.277067 6.64912e-20)
(1.0939 0.299748 3.55177e-20)
(1.14964 0.31619 5.19162e-20)
(0.102299 0.0201095 -5.29923e-20)
(0.280442 0.0606001 1.14208e-19)
(0.44255 0.106042 -2.12672e-20)
(0.589558 0.152109 1.8288e-20)
(0.721573 0.196609 9.54893e-21)
(0.838413 0.237536 -7.64832e-20)
(0.939759 0.273124 1.85266e-20)
(1.02529 0.301994 -2.68318e-20)
(1.09483 0.323312 -5.72211e-20)
(1.14804 0.338074 -3.47187e-20)
(0.104532 0.0246601 4.28329e-20)
(0.285456 0.0723647 -1.13998e-19)
(0.448998 0.123246 -2.21274e-20)
(0.596307 0.173249 -1.03277e-21)
(0.727666 0.220275 6.55418e-21)
(0.843086 0.262435 7.20516e-20)
(0.942464 0.298117 2.44987e-20)
(1.02572 0.326126 6.18862e-20)
(1.09291 0.345852 6.30823e-20)
(1.14382 0.358747 4.75724e-20)
(0.106301 0.0293328 -4.62785e-20)
(0.289249 0.0843426 -2.24838e-20)
(0.453619 0.140609 1.4066e-20)
(0.600753 0.194392 -1.29087e-20)
(0.731104 0.24372 -1.5085e-19)
(0.844881 0.286848 4.79037e-20)
(0.942198 0.322353 2.48704e-20)
(1.02321 0.34925 2.28164e-20)
(1.08821 0.367176 8.08177e-21)
(1.13709 0.37806 -1.07037e-19)
(0.10758 0.0340812 4.64084e-20)
(0.291766 0.0964155 -4.79833e-20)
(0.456352 0.15796 -3.78143e-20)
(0.602841 0.215333 4.62705e-20)
(0.731854 0.266717 1.23583e-19)
(0.843792 0.310545 -9.97999e-20)
(0.938986 0.345609 -5.61507e-20)
(1.01783 0.371162 -4.92544e-20)
(1.08082 0.387105 -8.45558e-20)
(1.12795 0.39587 3.67885e-20)
(0.108346 0.0388561 1.64286e-20)
(0.292965 0.10846 4.41906e-20)
(0.457154 0.175122 1.24652e-20)
(0.602543 0.235861 3.06777e-20)
(0.729909 0.289042 -8.01432e-20)
(0.83984 0.333301 -1.55181e-20)
(0.932877 0.367672 -1.45158e-20)
(1.00964 0.391675 4.79445e-20)
(1.07086 0.405478 1.06197e-20)
(1.11651 0.412034 6.43606e-21)
(0.108584 0.0436062 -4.50691e-21)
(0.292819 0.120348 4.74031e-20)
(0.456005 0.19192 2.12873e-20)
(0.599853 0.255771 -8.20181e-20)
(0.725288 0.310475 -1.78392e-20)
(0.83307 0.354898 -9.86953e-21)
(0.923943 0.38834 1.01225e-19)
(0.998762 0.410613 -4.83537e-20)
(1.05847 0.422176 5.04256e-20)
(1.10285 0.426413 -4.7516e-20)
(0.108286 0.0482785 -3.98368e-20)
(0.291319 0.131951 3.34894e-20)
(0.452904 0.208173 1.54002e-20)
(0.594794 0.274855 7.61119e-20)
(0.718036 0.330803 4.47768e-20)
(0.823553 0.375132 6.11551e-20)
(0.912276 0.407424 -1.31278e-19)
(0.985286 0.427784 1.41028e-20)
(1.04371 0.437071 3.88256e-20)
(1.0872 0.438947 -2.51827e-21)
(0.107448 0.0528198 4.14245e-20)
(0.288469 0.14314 -5.14429e-20)
(0.447875 0.223709 -4.13699e-20)
(0.587411 0.292917 4.77892e-20)
(0.708227 0.349824 -2.24423e-20)
(0.811383 0.393812 7.98033e-21)
(0.897983 0.424755 4.73627e-20)
(0.969315 0.443066 -4.66444e-21)
(1.02667 0.449985 4.17885e-22)
(1.06974 0.449551 1.62443e-20)
(0.106076 0.0571769 -2.03131e-20)
(0.284292 0.153788 -9.27578e-21)
(0.440964 0.238354 1.628e-20)
(0.577776 0.309764 1.54534e-20)
(0.695957 0.367345 -2.52253e-20)
(0.79668 0.410761 1.76399e-20)
(0.881194 0.440185 3.48529e-20)
(0.950982 0.456339 -2.59885e-20)
(1.00751 0.460831 -4.35731e-21)
(1.05053 0.458102 -5.92273e-21)
(0.10418 0.0612981 2.27774e-21)
(0.278824 0.163772 6.86216e-21)
(0.432236 0.251947 -4.37175e-20)
(0.565988 0.325217 -2.47061e-20)
(0.681353 0.383191 -3.91917e-20)
(0.779587 0.42582 -2.32565e-20)
(0.862057 0.453581 -3.48686e-21)
(0.930427 0.467498 4.03515e-21)
(0.986358 0.469527 1.52618e-20)
(1.02968 0.464508 9.21912e-21)
(0.101778 0.0651326 1.80538e-20)
(0.27212 0.172973 1.15781e-20)
(0.421781 0.264329 2.2233e-21)
(0.552167 0.339105 -1.83354e-20)
(0.664565 0.397197 9.53946e-21)
(0.760272 0.438851 6.39385e-21)
(0.840742 0.464834 -1.81926e-20)
(0.907794 0.476463 7.60172e-21)
(0.963305 0.476006 -2.1855e-20)
(1.00729 0.468679 1.61079e-20)
(0.0988951 0.068632 -4.02244e-21)
(0.264247 0.18128 4.87928e-21)
(0.409706 0.275357 8.37932e-21)
(0.536458 0.351273 8.87831e-21)
(0.645766 0.409218 -4.20593e-21)
(0.738931 0.44973 -3.08845e-20)
(0.817443 0.473857 3.52276e-20)
(0.883239 0.483182 -2.93798e-20)
(0.938431 0.480232 1.59751e-20)
(0.983422 0.470527 1.21983e-19)
(0.0955612 0.0717516 1.4599e-20)
(0.255288 0.188587 -1.30393e-20)
(0.396137 0.284894 4.70736e-21)
(0.519028 0.361577 2.90096e-21)
(0.625155 0.419121 -3.22021e-20)
(0.715783 0.458353 -2.24254e-20)
(0.792381 0.480586 -1.31725e-20)
(0.85694 0.487638 -4.42991e-20)
(0.911791 0.482202 7.14353e-20)
(0.958086 0.46996 -1.93515e-19)
(0.0918113 0.0744495 -5.83251e-20)
(0.245335 0.194798 2.51765e-20)
(0.381219 0.292817 -5.51817e-20)
(0.500059 0.369887 1.52643e-20)
(0.602953 0.426789 6.53517e-20)
(0.691075 0.464631 3.29848e-20)
(0.765814 0.484977 -6.9917e-20)
(0.829106 0.489844 -5.10512e-20)
(0.883416 0.481952 -8.97501e-21)
(0.931198 0.466845 -1.10912e-19)
(0.087685 0.0766876 -2.39474e-20)
(0.234494 0.199826 -2.42071e-20)
(0.365106 0.299014 4.96452e-20)
(0.479753 0.376089 3.87027e-20)
(0.579396 0.432119 -4.61983e-20)
(0.66508 0.468487 3.85534e-20)
(0.738044 0.487003 2.96617e-20)
(0.800016 0.489866 2.8863e-20)
(0.853389 0.479623 -2.76292e-19)
(0.902429 0.46107 4.37788e-19)
(0.0832261 0.0784315 9.10563e-21)
(0.222876 0.203595 4.52714e-20)
(0.347966 0.30339 5.73009e-21)
(0.458321 0.380082 -1.29471e-19)
(0.554735 0.435017 4.83875e-20)
(0.638089 0.469849 1.56326e-20)
(0.709423 0.486635 9.59714e-20)
(0.770096 0.487799 5.43298e-20)
(0.822112 0.475637 9.03766e-20)
(0.871102 0.453343 -1.0687e-19)
(0.0784816 0.0796515 -5.52685e-20)
(0.210604 0.206038 -1.1712e-19)
(0.329976 0.305861 7.85337e-20)
(0.43598 0.38178 1.15602e-19)
(0.529221 0.435401 -3.16865e-20)
(0.610397 0.468638 -6.32307e-20)
(0.680325 0.483794 -2.04262e-19)
(0.739962 0.483589 2.70145e-19)
(0.790758 0.470411 -7.11921e-20)
(0.836477 0.445367 1.6627e-20)
(0.0735011 0.0803222 1.22939e-19)
(0.197802 0.2071 2.25949e-19)
(0.311316 0.306362 6.05868e-21)
(0.412951 0.381115 -9.82636e-20)
(0.503101 0.433206 5.55121e-20)
(0.58227 0.464777 1.48948e-19)
(0.651071 0.478342 -8.96628e-20)
(0.710228 0.476817 8.18152e-20)
(0.761195 0.4628 1.04936e-19)
(0.807566 0.437123 -1.00711e-19)
(0.0683364 0.0804231 -5.43074e-20)
(0.1846 0.206741 -1.44963e-19)
(0.292171 0.304842 -1.04794e-19)
(0.389452 0.378042 1.40524e-19)
(0.47661 0.428391 4.2983e-20)
(0.553936 0.458226 -1.18411e-19)
(0.621838 0.47022 9.0613e-20)
(0.680851 0.467382 -1.65306e-19)
(0.732321 0.452384 1.86507e-19)
(0.77919 0.426246 -2.30464e-19)
(0.0630415 0.0799396 -1.07347e-19)
(0.171133 0.204931 1.65569e-19)
(0.272727 0.301275 1.03489e-20)
(0.365703 0.372538 1.07937e-19)
(0.449976 0.420945 -2.97671e-19)
(0.525609 0.448986 -2.9759e-19)
(0.592786 0.459454 1.70615e-19)
(0.651837 0.455395 4.34605e-21)
(0.703891 0.439509 -1.602e-19)
(0.75123 0.413124 5.60942e-19)
(0.0576723 0.078863 1.29889e-19)
(0.157537 0.201657 -1.88343e-19)
(0.253175 0.295652 1.15193e-19)
(0.341922 0.364607 -7.97635e-20)
(0.423426 0.410886 -3.53724e-20)
(0.497504 0.437096 4.5111e-19)
(0.564098 0.446113 -3.73602e-19)
(0.623317 0.441 1.13295e-19)
(0.676036 0.424487 1.57577e-19)
(0.723988 0.398202 -1.70774e-19)
(0.0522856 0.0771909 -2.31945e-19)
(0.143949 0.196921 2.29659e-20)
(0.233705 0.287983 -4.78993e-20)
(0.318328 0.354275 -1.46671e-19)
(0.397188 0.398257 -2.77488e-19)
(0.46984 0.422619 -1.74388e-19)
(0.535971 0.430285 -4.80504e-20)
(0.595459 0.424316 5.77668e-21)
(0.648917 0.407473 -1.18245e-19)
(0.697613 0.381631 6.55759e-20)
(0.0469387 0.0749271 -1.10686e-19)
(0.130509 0.190738 2.41884e-19)
(0.214505 0.2783 -2.32884e-20)
(0.295138 0.341587 2.35367e-20)
(0.371489 0.383122 1.68265e-19)
(0.442839 0.405636 1.18888e-19)
(0.50861 0.412067 3.47775e-19)
(0.568449 0.405454 2.01045e-19)
(0.622706 0.388567 -6.42825e-19)
(0.672248 0.363461 1.25949e-19)
(0.0416888 0.0720817 1.84126e-19)
(0.117353 0.183139 -2.94908e-19)
(0.195762 0.266653 -4.27236e-20)
(0.272567 0.326613 1.73749e-19)
(0.346551 0.365565 1.04677e-19)
(0.416718 0.386244 5.24348e-19)
(0.482222 0.391567 -4.38965e-19)
(0.542478 0.384518 3.61004e-20)
(0.597578 0.367854 3.67357e-19)
(0.648044 0.343733 3.3364e-19)
(0.0365922 0.068671 3.16624e-20)
(0.104616 0.174166 3.57924e-19)
(0.177659 0.253108 1.66157e-19)
(0.250823 0.309439 -9.25459e-20)
(0.322592 0.345687 -1.69089e-19)
(0.391691 0.364552 -3.03947e-21)
(0.457008 0.368895 1.45011e-19)
(0.517732 0.361616 7.64027e-20)
(0.573707 0.345417 -1.91299e-19)
(0.62515 0.322496 -4.12175e-20)
(0.0317037 0.064717 5.72909e-20)
(0.0924275 0.163879 -3.48304e-19)
(0.160374 0.23775 -2.14145e-19)
(0.230108 0.290169 3.04685e-19)
(0.299821 0.323605 2.81628e-20)
(0.367964 0.340685 -3.90037e-19)
(0.433165 0.344174 2.49827e-19)
(0.494392 0.336857 -1.20387e-19)
(0.551254 0.321345 1.92026e-19)
(0.603701 0.299812 -8.75826e-20)
(0.0270757 0.0602475 -3.47188e-20)
(0.0809124 0.152345 2.05248e-19)
(0.144073 0.22068 -1.03654e-19)
(0.210613 0.268925 -1.22618e-19)
(0.278438 0.299453 1.86172e-19)
(0.345732 0.314779 2.43671e-20)
(0.410875 0.317536 1.44798e-20)
(0.472626 0.310359 1.07839e-19)
(0.530369 0.295734 -1.36148e-19)
(0.58382 0.275754 -3.16563e-19)
(0.0227578 0.0552952 -3.41131e-20)
(0.0701881 0.139648 -9.70422e-20)
(0.128917 0.202013 3.63493e-19)
(0.192518 0.245844 -2.5725e-19)
(0.258629 0.273379 -1.75581e-19)
(0.325177 0.286984 -2.55131e-19)
(0.39031 0.289123 -1.9654e-19)
(0.452588 0.282251 -6.21319e-20)
(0.511187 0.268689 -1.39926e-19)
(0.565617 0.250411 1.68006e-19)
(0.0187961 0.0498976 -8.87109e-20)
(0.0603637 0.125878 -3.14933e-21)
(0.115053 0.181878 -1.06052e-19)
(0.175992 0.221077 -1.82843e-19)
(0.240566 0.245545 7.3975e-20)
(0.306468 0.257461 -5.62881e-20)
(0.371625 0.259088 -1.88095e-19)
(0.434418 0.252668 -1.25146e-19)
(0.49383 0.240329 1.76635e-19)
(0.549193 0.223885 7.33638e-20)
(0.0152328 0.0440967 2.86583e-19)
(0.0515389 0.111139 4.57655e-21)
(0.102614 0.160418 3.11515e-20)
(0.161184 0.194791 9.10752e-20)
(0.224406 0.216126 -6.09072e-20)
(0.289755 0.226383 3.23865e-19)
(0.354962 0.227593 3.81256e-19)
(0.418242 0.221757 2.48085e-19)
(0.478407 0.210781 -3.13351e-20)
(0.534634 0.196288 -3.58688e-20)
(0.0121057 0.0379383 -2.23159e-19)
(0.043803 0.0955411 -7.3932e-21)
(0.0917212 0.137784 -4.1103e-20)
(0.148233 0.167161 1.81307e-19)
(0.210288 0.185308 -2.39936e-20)
(0.275175 0.193935 -5.44583e-20)
(0.340445 0.194812 -1.71298e-19)
(0.404171 0.189676 -1.04117e-19)
(0.465012 0.180183 6.02625e-20)
(0.522016 0.167743 -1.39185e-19)
(0.00944788 0.0314714 -7.67201e-20)
(0.0372341 0.0792031 -8.38804e-21)
(0.0824795 0.11414 -1.38e-20)
(0.137254 0.138377 1.03373e-21)
(0.198334 0.153287 4.12079e-20)
(0.262842 0.16031 -1.56228e-19)
(0.328181 0.160927 1.13838e-19)
(0.3923 0.156589 -1.64215e-19)
(0.453726 0.148681 -7.26946e-20)
(0.511403 0.138382 7.95996e-20)
(0.00728735 0.0247482 2.49006e-20)
(0.0318981 0.0622504 -4.21038e-20)
(0.0749776 0.0896584 1.32684e-19)
(0.12835 0.108635 1.56611e-20)
(0.188647 0.120271 6.05964e-20)
(0.252857 0.12571 3.12724e-20)
(0.318261 0.126126 -1.28568e-19)
(0.382707 0.122668 1.25275e-19)
(0.444616 0.11643 1.05663e-19)
(0.502848 0.108343 -1.68141e-19)
(0.00564681 0.0178231 6.07073e-21)
(0.0278488 0.0448138 6.09963e-20)
(0.0692875 0.0645175 -2.94314e-20)
(0.1216 0.0781392 -1.13478e-19)
(0.181308 0.0864722 -9.42434e-20)
(0.245299 0.0903448 1.56588e-20)
(0.310757 0.090608 -8.3241e-21)
(0.375457 0.0880922 7.81118e-20)
(0.437736 0.0835897 6.67396e-20)
(0.496395 0.0777722 1.1927e-19)
(0.00454349 0.0107525 5.41025e-20)
(0.0251265 0.0270286 -2.97695e-20)
(0.0654637 0.0389016 5.88992e-20)
(0.117066 0.0471016 3.88178e-20)
(0.176381 0.0521099 3.03925e-20)
(0.240226 0.0544284 -3.12256e-20)
(0.305725 0.0545726 1.68538e-20)
(0.370597 0.0530449 1.77788e-21)
(0.433127 0.0503246 -1.24916e-20)
(0.492075 0.0468176 -8.48253e-20)
(0.00398893 0.00359395 -6.39839e-21)
(0.0237585 0.009033 -7.88056e-21)
(0.0635426 0.0129991 -5.14934e-20)
(0.114788 0.015737 -3.61191e-21)
(0.173907 0.0174078 2.57403e-20)
(0.23768 0.0181798 1.32467e-20)
(0.303199 0.0182256 3.21905e-21)
(0.368159 0.0177133 -3.88782e-20)
(0.430816 0.0168034 2.27431e-20)
(0.48991 0.0156317 -2.60534e-20)
(0.00398893 -0.00359394 3.52419e-22)
(0.0237585 -0.00903298 -2.13621e-20)
(0.0635426 -0.0129991 -4.56348e-20)
(0.114788 -0.015737 1.47266e-21)
(0.173907 -0.0174078 2.36101e-20)
(0.23768 -0.0181798 4.40361e-21)
(0.303199 -0.0182256 8.80501e-21)
(0.368159 -0.0177133 -3.27503e-20)
(0.430816 -0.0168034 2.35186e-20)
(0.48991 -0.0156316 -2.65452e-20)
(0.00454349 -0.0107525 3.9021e-20)
(0.0251265 -0.0270286 -2.03721e-20)
(0.0654637 -0.0389016 7.20464e-20)
(0.117066 -0.0471016 6.6165e-20)
(0.176381 -0.0521098 -1.48933e-20)
(0.240226 -0.0544284 -1.16468e-20)
(0.305725 -0.0545726 1.67284e-20)
(0.370597 -0.0530449 -1.42836e-20)
(0.433127 -0.0503246 -2.96882e-20)
(0.492075 -0.0468176 -1.85458e-20)
(0.00564681 -0.0178231 3.68388e-20)
(0.0278488 -0.0448138 3.74324e-20)
(0.0692875 -0.0645175 -3.64303e-20)
(0.1216 -0.0781391 -1.12086e-19)
(0.181308 -0.0864722 -5.61415e-20)
(0.245299 -0.0903448 -2.54809e-20)
(0.310757 -0.090608 1.72766e-20)
(0.375457 -0.0880922 6.89984e-20)
(0.437736 -0.0835897 -3.17519e-20)
(0.496395 -0.0777721 2.21255e-19)
(0.00728735 -0.0247482 -1.80536e-21)
(0.0318981 -0.0622504 -1.10567e-20)
(0.0749776 -0.0896584 6.9873e-20)
(0.12835 -0.108634 4.07746e-20)
(0.188647 -0.120271 5.24633e-20)
(0.252857 -0.12571 4.90719e-20)
(0.318261 -0.126126 -1.38238e-19)
(0.382707 -0.122668 9.61716e-20)
(0.444616 -0.11643 1.29072e-19)
(0.502848 -0.108343 -1.09534e-19)
(0.00944788 -0.0314714 -5.84613e-20)
(0.0372341 -0.0792031 3.48791e-20)
(0.0824795 -0.11414 5.3442e-21)
(0.137254 -0.138377 -6.32373e-21)
(0.198334 -0.153287 -5.0175e-20)
(0.262842 -0.16031 -9.3452e-20)
(0.328181 -0.160927 3.75703e-20)
(0.3923 -0.156589 -1.13968e-19)
(0.453726 -0.148681 -1.10251e-19)
(0.511403 -0.138381 7.06647e-20)
(0.0121057 -0.0379383 -1.5719e-19)
(0.043803 -0.0955411 9.17187e-21)
(0.0917212 -0.137784 -8.66381e-20)
(0.148233 -0.167161 7.28359e-20)
(0.210288 -0.185308 1.57434e-19)
(0.275175 -0.193935 -9.95856e-20)
(0.340445 -0.194812 -2.31313e-19)
(0.404171 -0.189676 -4.54566e-20)
(0.465012 -0.180183 -1.41943e-20)
(0.522016 -0.167743 -7.36185e-20)
(0.0152328 -0.0440967 2.78188e-19)
(0.0515389 -0.111139 -4.92442e-20)
(0.102614 -0.160417 3.22484e-20)
(0.161184 -0.194791 1.10903e-19)
(0.224406 -0.216126 -6.97282e-21)
(0.289755 -0.226383 3.70791e-19)
(0.354962 -0.227593 3.49544e-19)
(0.418242 -0.221757 2.68609e-19)