/*--------------------------------*- C++ -*----------------------------------*\
  =========                 |
  \\      /  F ield         | OpenFOAM: The Open Source CFD Toolbox
   \\    /   O peration     | Website:  https://openfoam.org
    \\  /    A nd           | Version:  7
     \\/     M anipulation  |
\*---------------------------------------------------------------------------*/
FoamFile
{
    version     2.0;
    format      ascii;
    class       surfaceScalarField;
    location    "20";
    object      phi;
}
// * * * * * * * * * * * * * * * * * * * * * * * * * * * * * * * * * * * * * //

dimensions      [0 3 -1 0 0 0 0];

internalField   nonuniform List<scalar> 
12578
(
-7.50976e-06
7.60385e-06
-9.40954e-08
-2.67451e-05
1.94666e-05
-2.313e-07
-5.57896e-05
2.93801e-05
-3.35562e-07
-9.27922e-05
3.74135e-05
-4.10888e-07
-0.000136091
4.37632e-05
-4.6435e-07
-0.000184354
4.87673e-05
-5.04587e-07
-0.000236736
5.29222e-05
-5.39573e-07
-0.000293094
5.69323e-05
-5.74683e-07
-0.000354158
6.16751e-05
-6.11615e-07
6.83103e-05
-6.47391e-07
-0.00042182
-7.4133e-06
1.50172e-05
-2.64142e-05
3.84676e-05
-5.5101e-05
5.80669e-05
-9.16196e-05
7.39321e-05
-0.000134286
8.64298e-05
-0.000181723
9.62037e-05
-0.00023301
0.00010421
-0.000287906
0.000111828
-0.000347032
0.000120801
0.000133422
-0.000412143
-7.22542e-06
2.22426e-05
-2.57677e-05
5.70098e-05
-5.37517e-05
8.60508e-05
-8.93171e-05
0.000109498
-0.000130736
0.000127849
-0.00017654
0.000142007
-0.000225662
0.000153332
-0.000277662
0.000163828
-0.000332946
0.000176085
0.000193459
-0.000392983
-6.95381e-06
2.91964e-05
-2.48281e-05
7.48841e-05
-5.17831e-05
0.000113006
-8.59477e-05
0.000143662
-0.000125529
0.00016743
-0.000168924
0.000185403
-0.000214848
0.000199256
-0.000262561
0.000211541
-0.000312151
0.000225675
0.000245937
-0.000364629
-6.60935e-06
3.58057e-05
-2.36275e-05
9.19023e-05
-4.92537e-05
0.000138632
-8.15992e-05
0.000176008
-0.000118786
0.000204617
-0.000159039
0.000225655
-0.000200781
0.000240998
-0.000242872
0.000253632
-0.000284985
0.000267788
0.000288391
-0.000327438
-6.2054e-06
4.20111e-05
-2.22049e-05
0.000107902
-4.6234e-05
0.000162661
-7.63767e-05
0.00020615
-0.000110652
0.000238892
-0.000147072
0.000262076
-0.000183704
0.00027763
-0.000218896
0.000288824
-0.000251807
0.000300699
0.000318333
-0.00028175
-5.75689e-06
4.7768e-05
-2.06038e-05
0.000122749
-4.28011e-05
0.000184858
-7.03927e-05
0.000233742
-0.000101274
0.000269773
-0.000133215
0.000294017
-0.000163858
0.000308273
-0.000190911
0.000315877
-0.000212932
0.00032272
0.000333187
-0.000227787
-5.27937e-06
5.30474e-05
-1.88685e-05
0.000136338
-3.90323e-05
0.000205022
-6.37554e-05
0.000258465
-9.07893e-05
0.000296807
-0.000117629
0.000320857
-0.00014143
0.000332073
-0.000159115
0.000333563
-0.000168524
0.000332129
0.000330225
-0.000165562
-4.78806e-06
5.78354e-05
-1.70417e-05
0.000148592
-3.49985e-05
0.000222979
-5.65567e-05
0.000280023
-7.92989e-05
0.000319549
-0.000100413
0.00034197
-0.000116504
0.000348164
-0.000123533
0.000340592
-0.000118464
0.00032706
0.00030668
-9.49185e-05
-4.29692e-06
6.21324e-05
-1.51606e-05
0.000159455
-3.07569e-05
0.000238575
-4.88597e-05
0.000298126
-6.68475e-05
0.000337537
-8.15617e-05
0.000356685
-8.90029e-05
0.000355606
-8.39244e-05
0.000335514
-6.19118e-05
0.000305047
0.000261794
-1.7026e-05
-3.81788e-06
6.59502e-05
-1.32547e-05
0.000168892
-2.63456e-05
0.000251666
-4.06868e-05
0.000312467
-5.34022e-05
0.000350253
-6.09352e-05
0.000364218
-5.86476e-05
0.000353318
-3.99666e-05
0.000316833
4.71198e-06
0.000260369
0.000191198
7.53082e-05
-3.36017e-06
6.93104e-05
-1.13432e-05
0.000176875
-2.17782e-05
0.000262101
-3.201e-05
0.000322699
-3.88329e-05
0.000357075
-3.82104e-05
0.000363595
-2.47792e-05
0.000339887
8.48541e-06
0.000283568
7.4054e-05
0.0001948
8.49085e-05
0.000180343
-2.9298e-06
7.22402e-05
-9.43292e-06
0.000183378
-1.70399e-05
0.000269708
-2.27452e-05
0.000328404
-2.28996e-05
0.00035723
-1.28615e-05
0.000353557
1.37092e-05
0.000313316
6.5769e-05
0.000231508
0.000156975
0.000103594
-5.96524e-05
0.000301536
-2.52903e-06
7.47692e-05
-7.51691e-06
0.000188366
-1.20849e-05
0.000274276
-1.27504e-05
0.00032907
-5.26123e-06
0.000349741
1.58237e-05
0.000332472
5.79107e-05
0.000271229
0.000131672
0.000157747
0.000254912
-1.96455e-05
-0.000247352
0.000442611
-2.15561e-06
-5.57186e-06
0.000191782
-6.83332e-06
0.000275538
-1.82014e-06
0.000324057
1.45236e-05
0.000333397
4.87195e-05
0.000298276
0.000109569
0.00021038
0.000209379
5.79364e-05
0.00037161
-0.000181877
-0.00048235
0.000606608
-3.55532e-06
0.000193536
-1.15854e-06
0.000273141
1.03038e-05
0.000312594
3.69861e-05
0.000306715
8.68176e-05
0.000248445
0.000170393
0.000126804
0.000301693
-7.33633e-05
0.000510821
-0.000391005
-0.000766571
0.000795042
-1.39785e-06
0.000193479
5.07678e-06
0.000266666
2.39593e-05
0.000293712
6.27477e-05
0.000267926
0.000131194
0.000179999
0.000242149
1.58485e-05
0.000411378
-0.000242592
0.000674992
-0.000654619
-0.00109823
0.00100665
9.77934e-07
1.21048e-05
0.000255539
3.95566e-05
0.00026626
9.25173e-05
0.000214965
0.000182969
8.95467e-05
0.000326463
-0.000127645
0.000540982
-0.000457111
0.000864031
-0.000977667
-0.00147075
0.00123655
2.01859e-05
0.000239024
5.75872e-05
0.000228859
0.000127087
0.000145465
0.000243265
-2.6631e-05
0.000424608
-0.000308988
0.00069234
-0.000724843
0.00107473
-0.00136006
-0.00187591
0.00147989
2.96438e-05
7.86179e-05
0.000179885
0.000167305
5.67785e-05
0.0003131
-0.000172426
0.000537174
-0.000533062
0.000864457
-0.00105213
0.00130301
-0.0017986
-0.00232124
0.00174834
0.000103265
0.000214016
-5.39726e-05
0.000393251
-0.00035166
0.00066374
-0.000803552
0.00105079
-0.00143917
0.00154
-0.00228781
-0.00303897
0.00225772
0.000267969
-0.000189796
0.000484083
-0.000567775
0.000803043
-0.00112251
0.00124361
-0.00187973
0.00178028
-0.00282449
-0.00374346
0.00248477
0.000329648
0.000585234
-0.000823361
0.000952328
-0.00148961
0.00143669
-0.00236409
0.00200576
-0.00339355
-0.00441431
0.00267661
0.000695255
0.00110656
-0.00190091
0.00162229
-0.00287983
0.00219897
-0.00397023
-0.00503769
0.00282235
0.00125884
0.00178974
-0.00341072
0.00235107
-0.00453156
-0.00560059
0.00291396
0.00192951
0.00245699
-0.00505904
-0.00609662
0.00295302
0.00251638
-0.00652589
0.00294565
0.00289934
0.00253307
0.00554124
0.00652683
0.00289983
0.00251689
0.00505996
0.00609755
0.00294617
0.00192992
0.00341142
0.00245748
0.0045324
0.00560149
0.00295355
0.00125909
0.00190128
0.0017901
0.00288041
0.00235152
0.00397097
0.00503853
0.00291448
0.000695342
0.000823487
0.00110674
0.00148988
0.00162258
0.00236456
0.00219936
0.00339419
0.00441506
0.00282283
0.000329649
0.000189808
0.000585272
0.000567864
0.000952435
0.00112272
0.00143689
0.00188011
0.00200606
0.00282502
0.00374409
0.00267704
0.000267941
5.39835e-05
0.000484075
0.00035173
0.000803081
0.000803713
0.00124372
0.00143947
0.00178048
0.00228826
0.00303947
0.00248511
0.000103219
-0.000179891
0.000213959
-5.67569e-05
0.000393197
0.000172492
0.000663711
0.000533199
0.00105081
0.00105237
0.00154008
0.00179899
0.00232161
0.00225795
2.96029e-05
-0.000239027
7.85524e-05
-0.000228841
0.000167217
-0.000145422
0.000312999
2.67099e-05
0.000537077
0.000309121
0.000864388
0.000725058
0.00130298
0.0013604
0.00187623
0.00174836
2.01335e-05
-0.000255514
5.75021e-05
-0.00026621
0.000126969
-0.000214889
0.000243119
-8.94402e-05
0.000424447
0.000127793
0.000692182
0.000457323
0.00107459
0.000977986
0.00147104
0.00147978
9.47871e-07
-0.000193454
1.2041e-05
-0.000266607
3.9452e-05
-0.000293621
9.23694e-05
-0.000267806
0.00018278
-0.000179851
0.00032624
-1.56668e-05
0.000540739
0.000242824
0.000863789
0.000654936
0.00109851
0.00123632
-1.43452e-06
-0.000193484
5.0018e-06
-0.000273044
2.38366e-05
-0.000312455
6.25723e-05
-0.000306542
0.000130965
-0.000248244
0.000241871
-0.000126573
0.00041106
7.36351e-05
0.00067465
0.000391345
0.000766874
0.00100629
-1.8138e-06
-7.69019e-05
-3.59684e-06
-0.000191701
-1.24407e-06
-0.000275396
1.0165e-05
-0.000323864
3.67871e-05
-0.000333164
8.65553e-05
-0.000298012
0.000170068
-0.000210085
0.000301311
-5.7608e-05
0.000510393
0.000182263
0.000482697
0.000794571
-2.16886e-06
-7.4733e-05
-5.61765e-06
-0.000188252
-6.92644e-06
-0.000274088
-1.97187e-06
-0.000328819
1.4306e-05
-0.000349442
4.84313e-05
-0.000332137
0.000109208
-0.000270862
0.000208949
-0.000157349
0.000371114
2.00983e-05
0.000247763
0.000606047
-2.5434e-06
-7.21896e-05
-7.56596e-06
-0.000183229
-1.2184e-05
-0.00026947
-1.29109e-05
-0.000328092
-5.49125e-06
-0.000356862
1.55183e-05
-0.000353147
5.75265e-05
-0.00031287
0.00013121
-0.000231033
0.000254368
-0.00010306
6.01459e-05
0.000441986
-2.94496e-06
-6.92447e-05
-9.48408e-06
-0.00017669
-1.71425e-05
-0.000261811
-2.29106e-05
-0.000322324
-2.31359e-05
-0.000356636
-1.31747e-05
-0.000363108
1.33161e-05
-0.000339361
6.52921e-05
-0.000283009
0.000156406
-0.000194174
-8.43208e-05
0.000300873
-3.37572e-06
-6.5869e-05
-1.13952e-05
-0.000168671
-2.18818e-05
-0.000251324
-3.21761e-05
-0.00031203
-3.90692e-05
-0.000349743
-3.85229e-05
-0.000363654
-2.51753e-05
-0.000352709
7.9833e-06
-0.000316167
7.34823e-05
-0.000259673
-0.000190508
0.00017967
-3.83343e-06
-6.20355e-05
-1.33063e-05
-0.000159198
-2.64478e-05
-0.000238183
-4.08495e-05
-0.000297628
-5.36327e-05
-0.00033696
-6.12389e-05
-0.000356048
-5.90291e-05
-0.000354918
-4.04177e-05
-0.000334779
4.22907e-06
-0.000304319
-0.00026092
7.46406e-05
-4.31211e-06
-5.77234e-05
-1.52107e-05
-0.000148299
-3.08554e-05
-0.000222538
-4.90157e-05
-0.000279468
-6.70673e-05
-0.000318909
-8.18501e-05
-0.000341265
-8.9364e-05
-0.000347405
-8.43612e-05
-0.000339782
-6.24602e-05
-0.00032622
-0.000305766
-1.76144e-05
-4.80254e-06
-5.29209e-05
-1.70891e-05
-0.000136013
-3.50912e-05
-0.000204536
-5.67029e-05
-0.000257856
-7.95038e-05
-0.000296108
-0.00010068
-0.000320088
-0.000116838
-0.000331247
-0.000123939
-0.000332681
-0.000118958
-0.000331201
-0.000329229
-9.54944e-05
-5.29283e-06
-4.7628e-05
-1.89124e-05
-0.000122393
-3.91176e-05
-0.000184331
-6.38891e-05
-0.000233085
-9.09759e-05
-0.000269021
-0.000117872
-0.000293192
-0.000141732
-0.000307386
-0.000159482
-0.000314932
-0.000168965
-0.000321718
-0.000332117
-0.000166078
-5.76906e-06
-4.1859e-05
-2.06432e-05
-0.000107519
-4.28775e-05
-0.000162097
-7.05119e-05
-0.00020545
-0.00010144
-0.000238093
-0.00013343
-0.000261202
-0.000164124
-0.000276692
-0.000191233
-0.000287823
-0.000213316
-0.000299635
-0.000317199
-0.000228235
-6.21606e-06
-3.56429e-05
-2.22393e-05
-9.14957e-05
-4.63003e-05
-0.000138036
-7.64798e-05
-0.000175271
-0.000110794
-0.000203779
-0.000147256
-0.00022474
-0.000183932
-0.000240016
-0.00021917
-0.000252585
-0.000252132
-0.000266673
-0.000287204
-0.000282127
-6.61831e-06
-2.90246e-05
-2.36563e-05
-7.44577e-05
-4.93091e-05
-0.000112383
-8.1685e-05
-0.000142895
-0.000118905
-0.000166559
-0.000159191
-0.000184453
-0.000200968
-0.000198239
-0.000243097
-0.000210456
-0.00028525
-0.00022452
-0.000244709
-0.000327744
-6.96092e-06
-2.20637e-05
-2.48509e-05
-5.65677e-05
-5.18269e-05
-8.54069e-05
-8.60152e-05
-0.000108707
-0.000125622
-0.000126953
-0.000169043
-0.000141032
-0.000214994
-0.000152288
-0.000262736
-0.000162714
-0.000312357
-0.000174899
-0.000192201
-0.000364865
-7.23057e-06
-1.48331e-05
-2.57842e-05
-3.80141e-05
-5.37832e-05
-5.74079e-05
-8.93657e-05
-7.3124e-05
-0.000130803
-8.55155e-05
-0.000176625
-9.52094e-05
-0.000225767
-0.000103146
-0.000277786
-0.000110695
-0.000333091
-0.000119594
-0.000132143
-0.00039315
-7.41642e-06
-7.41671e-06
-2.64242e-05
-1.90063e-05
-5.51201e-05
-2.8712e-05
-9.1649e-05
-3.65951e-05
-0.000134326
-4.28381e-05
-0.000181774
-4.77619e-05
-0.000233073
-5.18469e-05
-0.000287981
-5.57869e-05
-0.000347119
-6.04559e-05
-6.70195e-05
-0.000412243
-7.5108e-06
-2.67484e-05
-5.5796e-05
-9.2802e-05
-0.000136104
-0.000184371
-0.000236757
-0.000293119
-0.000354187
-0.000421853
-0.000454534
3.32118e-05
-4.98256e-07
-0.000487906
3.38636e-05
-4.91845e-07
-0.000521625
3.41922e-05
-4.72657e-07
-0.000555684
3.44944e-05
-4.35721e-07
-0.000590109
3.47997e-05
-3.74884e-07
-0.000624953
3.5127e-05
-2.83066e-07
-0.000660268
3.54669e-05
-1.5205e-07
-0.000696102
3.58071e-05
2.73843e-08
-0.000732509
3.61419e-05
2.65264e-07
-0.000769553
3.6472e-05
5.72e-07
-0.000807313
3.68019e-05
9.57772e-07
-0.000845881
3.71359e-05
1.43182e-06
-0.000885356
3.74743e-05
2.00121e-06
-0.000925835
3.78094e-05
2.66941e-06
-0.00096739
3.81212e-05
3.43451e-06
-0.00101005
3.83734e-05
4.28704e-06
-0.00105377
3.85083e-05
5.20758e-06
-0.00109837
3.84421e-05
6.16426e-06
-0.00114354
3.80602e-05
7.11042e-06
-0.00118874
3.72122e-05
7.98227e-06
-0.00123314
3.57018e-05
8.70311e-06
-0.00127562
3.33017e-05
9.17418e-06
-0.00131464
2.97364e-05
9.28706e-06
-0.00134828
2.47058e-05
8.92707e-06
-0.00137409
1.78137e-05
8.00137e-06
-0.00138918
8.66612e-06
6.42829e-06
-0.00139021
-3.00306e-06
4.02858e-06
-0.00137415
-1.70574e-05
9.99896e-07
-0.00133732
-3.41901e-05
-2.64131e-06
-0.00127699
-5.36391e-05
-6.68756e-06
-0.00118987
-7.627e-05
-1.08521e-05
-0.00107571
-9.94803e-05
-1.46818e-05
-0.000932048
-0.000125777
-1.78851e-05
-0.000763559
-0.000148538
-1.99519e-05
-0.000566029
-0.000176869
-2.06608e-05
-0.000354537
-0.000191519
-1.99736e-05
-0.000112545
-0.000225006
-1.69848e-05
0.000123857
-0.000222063
-1.43395e-05
0.000395728
-0.000264069
-7.80198e-06
0.000648035
-0.000248676
-3.63059e-06
0.000932818
-0.000287646
2.86218e-06
-0.000303905
1.08814e-05
-0.000444131
6.51994e-05
-0.00047679
6.6523e-05
-0.000509821
6.72231e-05
-0.000543208
6.78807e-05
-0.000576958
6.85503e-05
-0.000611111
6.92799e-05
-0.000645707
7.00623e-05
-0.000680784
7.08842e-05
-0.000716388
7.17462e-05
-0.000752578
7.26617e-05
-0.000789427
7.36509e-05
-0.000827023
7.47326e-05
-0.000865465
7.59156e-05
-0.000904844
7.71891e-05
-0.000945236
7.85124e-05
-0.000986667
7.98049e-05
-0.00102909
8.09337e-05
-0.00107235
8.17018e-05
-0.00111613
8.18352e-05
-0.00115989
8.09725e-05
-0.00120283
7.86465e-05
-0.00124384
7.43076e-05
-0.0012814
6.72975e-05
-0.0013136
5.69064e-05
-0.00133803
4.22483e-05
-0.00135184
2.24743e-05
-0.00135168
-3.17055e-06
-0.00133459
-3.41392e-05
-0.00129688
-7.19021e-05
-0.00123587
-0.000114652
-0.00114828
-0.000163855
-0.00103387
-0.000213889
-0.000890243
-0.000269409
-0.00072203
-0.00031675
-0.000525038
-0.000373861
-0.000314281
-0.000402276
-7.32267e-05
-0.000466061
0.000162093
-0.000457383
0.000431953
-0.000533929
0.000683076
-0.0004998
0.00096564
-0.00057021
-0.000594362
-0.00042355
9.57667e-05
-0.000454813
9.77859e-05
-0.000486493
9.8903e-05
-0.00051856
9.99475e-05
-0.000550987
0.000100978
-0.000583784
0.000102077
-0.000616968
0.000103246
-0.00065056
0.000104476
-0.000684589
0.000105776
-0.000719103
0.000107175
-0.000754165
0.000108713
-0.000789857
0.000110424
-0.000826269
0.000112328
-0.000863491
0.000114411
-0.000901595
0.000116616
-0.000940611
0.000118821
-0.000980499
0.000120821
-0.00102111
0.00012231
-0.00106213
0.000122859
-0.00110306
0.000121902
-0.00114312
0.000118705
-0.00118121
0.000112404
-0.00121588
0.000101961
-0.00124524
8.62663e-05
-0.00126694
6.3948e-05
-0.00127816
3.36957e-05
-0.00127569
-5.63899e-06
-0.00125656
-5.32706e-05
-0.00121713
-0.000111333
-0.0011548
-0.000176981
-0.00106636
-0.000252289
-0.000951565
-0.000328688
-0.000808115
-0.000412859
-0.000640604
-0.000484262
-0.000444849
-0.000569616
-0.000235732
-0.000611393
4.23852e-06
-0.000706031
0.000236148
-0.000689293
0.000502096
-0.000799876
0.000750721
-0.000748425
0.00102889
-0.000848377
-0.00087983
-0.000393147
0.000124284
-0.000422386
0.000127025
-0.000452107
0.000128624
-0.000482263
0.000130103
-0.000512776
0.000131491
-0.000543614
0.000132915
-0.00057476
0.000134392
-0.000606207
0.000135923
-0.000637965
0.000137534
-0.000670063
0.000139273
-0.00070255
0.000141201
-0.000735497
0.000143371
-0.000768985
0.000145815
-0.000803097
0.000148524
-0.000837903
0.000151422
-0.000873434
0.000154352
-0.000909657
0.000157043
-0.000946433
0.000159086
-0.000983479
0.000159905
-0.00102031
0.000158738
-0.0010562
0.000154589
-0.00109009
0.000146293
-0.00112057
0.000132438
-0.00114583
0.000111529
-0.00116359
8.1712e-05
-0.00117111
4.12148e-05
-0.00116535
-1.1398e-05
-0.00114333
-7.52976e-05
-0.0011015
-0.000153162
-0.00103737
-0.000241107
-0.000947842
-0.000341818
-0.000832626
-0.000443904
-0.000689595
-0.000555889
-0.000523266
-0.000650591
-0.000329466
-0.000763416
-0.000122934
-0.000817926
0.000111761
-0.000940726
0.000342083
-0.000919615
0.000602548
-0.00106034
0.000847416
-0.000993293
0.00111928
-0.00112024
-0.00115817
-0.000353377
0.000150223
-0.000380051
0.000153699
-0.000407285
0.000155858
-0.000435018
0.000157837
-0.000463109
0.000159582
-0.000491469
0.000161275
-0.000520041
0.000162964
-0.000548783
0.000164666
-0.000577679
0.000166429
-0.000606734
0.000168328
-0.000635982
0.000170449
-0.000665476
0.000172865
-0.000695286
0.000175626
-0.000725487
0.000178724
-0.000756141
0.000182077
-0.000787283
0.000185494
-0.000818885
0.000188645
-0.000850827
0.000191028
-0.000882852
0.000191929
-0.000914517
0.000190403
-0.00094513
0.000185203
-0.000973711
0.000174874
-0.000998914
0.000157641
-0.00101903
0.000131641
-0.00103186
9.45478e-05
-0.00103478
4.41294e-05
-0.00102494
-2.12381e-05
-0.000999369
-0.000100866
-0.000954664
-0.000197866
-0.000888443
-0.000307329
-0.000797737
-0.000432524
-0.000682217
-0.000559424
-0.00053994
-0.000698167
-0.000375322
-0.000815209
-0.000184212
-0.000954526
1.88125e-05
-0.00102095
0.000248541
-0.00117045
0.000474853
-0.00114593
0.000728504
-0.00131399
0.000968467
-0.00123326
0.00123246
-0.00138423
-0.00142758
-0.000304711
0.000173184
-0.000328388
0.000177376
-0.000352711
0.000180181
-0.000377612
0.000182737
-0.000402873
0.000184843
-0.000428343
0.000186745
-0.000453915
0.000188536
-0.000479511
0.000190261
-0.00050508
0.000191999
-0.000530605
0.000193853
-0.000556097
0.000195941
-0.000581592
0.000198361
-0.000607144
0.000201177
-0.000632814
0.000204394
-0.000658658
0.000207921
-0.000684708
0.000211544
-0.000710945
0.000214883
-0.000737268
0.000217351
-0.000763449
0.000218109
-0.000789094
0.000216049
-0.000813568
0.000209677
-0.00083597
0.000197276
-0.000855044
0.000176715
-0.000869187
0.000145784
-0.000876334
0.000101695
-0.000873973
4.17679e-05
-0.000859479
-3.57321e-05
-0.000829933
-0.000130411
-0.000782074
-0.000245725
-0.000713635
-0.000375768
-0.000621822
-0.000524337
-0.000506234
-0.000675011
-0.000365121
-0.00083928
-0.000202762
-0.000977567
-1.47636e-05
-0.00114252
0.000183806
-0.00121952
0.000407591
-0.00139424
0.000628787
-0.00136712
0.000874545
-0.00155975
0.0011086
-0.00146731
0.0013635
-0.00163913
-0.00168668
-0.00024752
0.000192917
-0.000267911
0.000197767
-0.000289028
0.000201298
-0.000310805
0.000204515
-0.000332949
0.000206987
-0.000355234
0.00020903
-0.000377505
0.000210806
-0.00039964
0.000212397
-0.000421559
0.000213918
-0.000443217
0.00021551
-0.000464602
0.000217327
-0.000485731
0.000219489
-0.000506635
0.000222082
-0.000527361
0.00022512
-0.000547953
0.000228513
-0.000568439
0.000232029
-0.000588804
0.000235248
-0.000608965
0.000237513
-0.000628729
0.000237872
-0.000647756
0.000235077
-0.000665476
0.000227397
-0.000681079
0.00021288
-0.000693416
0.000189051
-0.000701011
0.000153379
-0.000701942
0.000102625
-0.000693857
3.36832e-05
-0.000674344
-5.52453e-05
-0.000640571
-0.000164184
-0.00058945
-0.000296846
-0.000518812
-0.000446406
-0.000426077
-0.000617072
-0.000310734
-0.000790354
-0.000171232
-0.000978783
-1.10106e-05
-0.00113779
0.00017177
-0.00132531
0.00036573
-0.00141348
0.000582918
-0.00161143
0.000798165
-0.00158237
0.00103518
-0.00179677
0.00126248
-0.00169461
0.00150741
-0.00188405
-0.00193448
-0.000181963
0.000209319
-0.000198948
0.000214752
-0.00021671
0.00021906
-0.00023521
0.000223015
-0.000254078
0.000225854
-0.000273012
0.000227964
-0.000291806
0.0002296
-0.000310304
0.000230894
-0.000328393
0.000232007
-0.000346002
0.000233119
-0.0003631
0.000234425
-0.000379679
0.000236067
-0.000395748
0.000238151
-0.000411333
0.000240704
-0.00042646
0.000243641
-0.000441148
0.000246717
-0.000455385
0.000249484
-0.000469102
0.00025123
-0.000482137
0.000250907
-0.000494211
0.000247151
-0.000504822
0.000238008
-0.000513264
0.000221321
-0.000518502
0.000194289
-0.000519205
0.000154083
-0.000513611
9.70306e-05
-0.000499536
1.9609e-05
-0.000474837
-7.99444e-05
-0.00043674
-0.000202282
-0.000382376
-0.000351209
-0.000309645
-0.000519138
-0.000216238
-0.000710479
-0.00010135
-0.000905242
3.59618e-05
-0.00111609
0.000191878
-0.0012937
0.000370646
-0.00150407
0.000559097
-0.00160193
0.000769016
-0.00182135
0.000977655
-0.00179101
0.0012053
-0.00202441
0.00142515
-0.00191446
0.00165954
-0.00211844
-0.00217033
-0.000107857
0.000222258
-0.000121464
0.000228359
-0.000135943
0.000233539
-0.000151167
0.000238239
-0.000166742
0.000241429
-0.000182289
0.000243512
-0.000197562
0.000244873
-0.000212376
0.000245708
-0.000226596
0.000246227
-0.000240129
0.000246652
-0.000252926
0.000247222
-0.000264953
0.000248095
-0.000276197
0.000249395
-0.000286656
0.000251163
-0.000296335
0.000253319
-0.000305235
0.000255617
-0.00031334
0.000257589
-0.00032059
0.000258481
-0.00032685
0.000257167
-0.000331901
0.000252202
-0.000335311
0.000241417
-0.000336478
0.000222489
-0.000334495
0.000192306
-0.00032817
0.000147758
-0.000316002
8.48623e-05
-0.000295791
-6.01859e-07
-0.000265904
-0.000109832
-0.000223481
-0.000244704
-0.00016596
-0.00040873
-9.11945e-05
-0.000593904
2.95554e-06
-0.00080463
0.000116291
-0.00101858
0.000251038
-0.00125084
0.000403044
-0.00144571
0.000576578
-0.00167761
0.000758989
-0.00178434
0.000961081
-0.00202344
0.0011626
-0.00199253
0.00138043
-0.00224224
0.00159228
-0.00212631
0.00181579
-0.00234195
-0.00239389
-2.34675e-05
0.000228699
-3.49755e-05
0.000239867
-4.6519e-05
0.000245082
-5.86238e-05
0.000250344
-7.10412e-05
0.000253846
-8.33016e-05
0.000255772
-9.51337e-05
0.000256705
-0.000106345
0.00025692
-0.000116795
0.000256677
-0.000126367
0.000256224
-0.000135006
0.000255861
-0.000142656
0.000255744
-0.000149272
0.000256012
-0.000154824
0.000256716
-0.000159289
0.000257784
-0.000162643
0.000258972
-0.000164855
0.000259801
-0.000165869
0.000259494
-0.000165562
0.00025686
-0.000163782
0.000250422
-0.000160147
0.000237782
-0.000154172
0.000216513
-0.000145072
0.000183207
-0.000131815
0.000134501
-0.000112894
6.59416e-05
-8.70801e-05
-2.64161e-05
-5.18124e-05
-0.000145099
-4.76463e-06
-0.000291752
5.53407e-05
-0.000468835
0.00013165
-0.000670213
0.00022556
-0.00089854
0.000337811
-0.00113083
0.000469881
-0.00138291
0.000617533
-0.00159336
0.000785314
-0.00184539
0.00096129
-0.00196032
0.00115512
-0.00221726
0.00134912
-0.00218654
0.00155686
-0.00244998
0.00176028
-0.00232974
0.0019728
-0.00255447
-0.00260507
6.98776e-05
0.00023413
6.11837e-05
0.000248561
5.22824e-05
0.000253984
4.29216e-05
0.000259705
3.33845e-05
0.000263383
2.41889e-05
0.000264968
1.56013e-05
0.000265293
7.79616e-06
0.000264725
9.21222e-07
0.000263552
-4.98015e-06
0.000262125
-9.7649e-06
0.000260646
-1.33701e-05
0.000259349
-1.57324e-05
0.000258374
-1.67887e-05
0.000257772
-1.64795e-05
0.000257475
-1.47509e-05
0.000257243
-1.15486e-05
0.000256599
-6.81177e-06
0.000254757
-4.9564e-07
0.000250544
7.79603e-06
0.000242131
1.80957e-05
0.000227483
3.08659e-05
0.000203743
4.67645e-05
0.000167308
6.66807e-05
0.000114585
9.1858e-05
4.07642e-05
0.000123493
-5.80514e-05
0.00016367
-0.000185276
0.000214318
-0.0003424
0.000277614
-0.000532131
0.000355374
-0.000747973
0.000449332
-0.000992497
0.000559877
-0.00124137
0.000688797
-0.00151183
0.000831786
-0.00173635
0.000993407
-0.00200701
0.00116266
-0.00212957
0.0013479
-0.0024025
0.00153411
-0.00237275
0.00173163
-0.0026475
0.00192631
-0.00252441
0.00212786
-0.00275602
-0.00280396
0.000175873
0.0002386
0.000168764
0.00025567
0.000161749
0.000260999
0.000154531
0.000266922
0.000147429
0.000270485
0.000140942
0.000271455
0.000135269
0.000270965
0.000130533
0.000269461
0.000126835
0.00026725
0.000124276
0.000264684
0.000122926
0.000261996
0.00012288
0.000259396
0.000124238
0.000257016
0.000127103
0.000254907
0.000131576
0.000253002
0.000137752
0.000251067
0.00014572
0.00024863
0.000155569
0.000244908
0.000167416
0.000238697
0.000181357
0.00022819
0.000197656
0.000211183
0.000216619
0.00018478
0.000238784
0.000145143
0.000264873
8.84965e-05
0.000295939
9.69769e-06
0.000333001
-9.51128e-05
0.000377885
-0.000230161
0.000432295
-0.00039681
0.000498165
-0.000598001
0.000577128
-0.000826936
0.000670825
-0.00108619
0.00077942
-0.00134997
0.000904874
-0.00163729
0.00104296
-0.00187444
0.00119811
-0.00216216
0.00136046
-0.00229192
0.0015369
-0.00257895
0.00171513
-0.00255098
0.00190243
-0.00283479
0.00208817
-0.00271016
0.00227892
-0.00294677
-0.00299082
0.000296964
0.000243171
0.000289904
0.00026273
0.000283687
0.000267216
0.000277862
0.000272748
0.000272623
0.000275724
0.00026837
0.000275709
0.000265171
0.000274164
0.000263051
0.000271582
0.000262059
0.000268242
0.000262265
0.000264478
0.000263746
0.000260515
0.000266613
0.000256528
0.000270998
0.000252631
0.000277043
0.000248862
0.000284894
0.000245151
0.000294691
0.00024127
0.000306568
0.000236754
0.000320646
0.00023083
0.000337051
0.000222292
0.000355895
0.000209346
0.000377393
0.000189686
0.000401781
0.000160392
0.000429497
0.000117427
0.000461148
5.68455e-05
0.000497485
-2.66396e-05
0.00053952
-0.000137148
0.000588693
-0.000279334
0.000646509
-0.000454625
0.000714644
-0.000666136
0.000794525
-0.000906817
0.000887683
-0.00117935
0.000994081
-0.00145637
0.00111579
-0.001759
0.0012488
-0.00200744
0.00139725
-0.00231061
0.00155258
-0.00244725
0.00172015
-0.00274652
0.00189031
-0.00272114
0.00206748
-0.00301196
0.00224421
-0.00288688
0.00242443
-0.00312699
-0.00316603
0.000435527
0.000250256
0.000426918
0.00027134
0.000420341
0.000273793
0.000415051
0.000278038
0.000411018
0.000279757
0.000408421
0.000278306
0.000407117
0.000275467
0.000406995
0.000271704
0.000408038
0.000267199
0.000410288
0.000262227
0.000413831
0.000256973
0.000418797
0.000251562
0.000425351
0.000246077
0.000433678
0.000240535
0.00044397
0.000234858
0.000456419
0.000228821
0.000471203
0.000221969
0.000488488
0.000213546
0.000508427
0.000202353
0.000531148
0.000186625
0.000556844
0.00016399
0.0005857
0.000131535
0.000618073
8.50548e-05
0.000654435
2.0483e-05
0.000695365
-6.75692e-05
0.000741702
-0.000183485
0.000794604
-0.000332236
0.000855353
-0.000515375
0.000925341
-0.000736124
0.00100577
-0.000987246
0.00109806
-0.00127164
0.00120199
-0.0015603
0.0013197
-0.00187671
0.00144749
-0.00213523
0.00158909
-0.00245221
0.00173737
-0.00259553
0.00189609
-0.00290523
0.00205819
-0.00288324
0.00222545
-0.00317923
0.0023932
-0.00305463
0.00256323
-0.00329702
-0.00333009
0.000593942
0.000262922
0.000582195
0.000283086
0.000574255
0.000281733
0.000568726
0.000283567
0.000565239
0.000283244
0.00056362
0.000279925
0.000563455
0.000275632
0.000564493
0.000270666
0.000566666
0.000265026
0.000570008
0.000258886
0.000574623
0.000252358
0.000580673
0.000245512
0.000588359
0.00023839
0.000597909
0.000230985
0.000609562
0.000223206
0.000623555
0.000214828
0.000640118
0.000205405
0.000659461
0.000194203
0.000681774
0.00018004
0.000707213
0.000161186
0.000735966
0.000135238
0.000768185
9.93158e-05
0.000804145
4.90942e-05
0.000844241
-1.9613e-05
0.00088887
-0.000112198
0.000938701
-0.000233317
0.000994613
-0.000388148
0.00105767
-0.000578429
0.00112896
-0.00080742
0.00120947
-0.00106775
0.00130049
-0.00136266
0.00140165
-0.00166146
0.0015151
-0.00199016
0.00163756
-0.00225769
0.00177226
-0.00258691
0.00191353
-0.00273681
0.00206353
-0.00305522
0.00221767
-0.00303738
0.00237532
-0.00333687
0.00253424
-0.00321356
0.00269452
-0.0034573
-0.00348358
0.000773749
0.000284216
0.000757978
0.000298857
0.000748275
0.000291436
0.000742033
0.000289809
0.000738463
0.000286813
0.000736968
0.000281421
0.000736898
0.000275703
0.00073793
0.000269633
0.000739999
0.000262957
0.000743174
0.000255711
0.000747603
0.000247929
0.000753489
0.000239627
0.000761072
0.000230807
0.000770619
0.000221438
0.000782409
0.000211415
0.000796722
0.000200515
0.000813831
0.000188297
0.000833988
0.000174046
0.000857422
0.000156606
0.000884324
0.000134284
0.000914881
0.000104681
0.000949248
6.49485e-05
0.000987615
1.07275e-05
0.00103032
-6.23153e-05
0.00107759
-0.00015947
0.00112994
-0.00028567
0.00118799
-0.000446193
0.00125256
-0.000642999
0.00132448
-0.000879341
0.00140448
-0.00114776
0.00149373
-0.00145191
0.00159179
-0.00175952
0.00170074
-0.00209911
0.00181781
-0.00237475
0.00194563
-0.00271473
0.00208
-0.00287118
0.00222152
-0.00319674
0.00236789
-0.00318375
0.0025163
-0.00348529
0.00266668
-0.00336394
0.0028177
-0.00360832
-0.00362714
0.000975414
0.000315452
0.000956604
0.000317667
0.000945833
0.000302207
0.000938758
0.000296884
0.000934338
0.000291233
0.000931708
0.000284051
0.000930195
0.000277216
0.000929572
0.000270256
0.000929871
0.000262658
0.000931249
0.000254332
0.000933924
0.000245255
0.000938144
0.000235407
0.000944187
0.000224764
0.000952345
0.00021328
0.000962926
0.000200835
0.000976237
0.000187204
0.000992583
0.000171951
0.00101225
0.000154378
0.0010355
0.000133358
0.00106255
0.000107231
0.0010936
7.36334e-05
0.00112877
2.97735e-05
0.00116837
-2.88674e-05
0.00121241
-0.000106358
0.00126115
-0.000208205
0.00131491
-0.00033943
0.00137406
-0.000505342
0.0014392
-0.000708146
0.00151093
-0.000951066
0.00158974
-0.00122656
0.00167668
-0.00153885
0.00177128
-0.00185413
0.00187553
-0.00220336
0.00198718
-0.0024864
0.00210825
-0.0028358
0.00223593
-0.00299886
0.00236931
-0.00333011
0.0025082
-0.00332264
0.00264785
-0.00362494
0.00279007
-0.00350616
0.00293237
-0.00375062
-0.0037615
0.00119866
0.000353345
0.00118145
0.000334881
0.00117163
0.000312023
0.00116355
0.000304964
0.00115682
0.00029796
0.00115093
0.00028994
0.00114566
0.000282491
0.00114109
0.000274829
0.00113743
0.000266309
0.00113499
0.00025678
0.00113403
0.000246212
0.00113485
0.000234589
0.00113773
0.00022188
0.00114298
0.000208029
0.00115091
0.000192905
0.00116184
0.000176278
0.00117607
0.000157712
0.00119393
0.000136523
0.00121568
0.000111611
0.00124156
8.13505e-05
0.0012718
4.33899e-05
0.00130649
-4.91972e-06
0.00134594
-6.83159e-05
0.00139007
-0.000150484
0.00143899