/*--------------------------------*- C++ -*----------------------------------*\
  =========                 |
  \\      /  F ield         | OpenFOAM: The Open Source CFD Toolbox
   \\    /   O peration     | Website:  https://openfoam.org
    \\  /    A nd           | Version:  7
     \\/     M anipulation  |
\*---------------------------------------------------------------------------*/
FoamFile
{
    version     2.0;
    format      ascii;
    class       surfaceScalarField;
    location    "5";
    object      phi;
}
// * * * * * * * * * * * * * * * * * * * * * * * * * * * * * * * * * * * * * //

dimensions      [0 3 -1 0 0 0 0];

internalField   nonuniform List<scalar> 
25237
(
-4.57364e-06
4.57133e-06
2.30786e-09
-1.56956e-05
1.11163e-05
5.73857e-09
-3.17246e-05
1.60212e-05
7.72019e-09
-5.10879e-05
1.93555e-05
7.87477e-09
-7.23177e-05
2.12237e-05
6.01632e-09
-9.41174e-05
2.17975e-05
2.18583e-09
-0.000115449
2.13349e-05
-3.3066e-09
-0.000135659
2.02201e-05
-9.86107e-09
-0.000154536
1.88936e-05
-1.66361e-08
1.78973e-05
-2.26593e-08
-0.000172411
-4.48456e-06
9.0559e-06
-1.53531e-05
2.19848e-05
-3.09522e-05
3.16203e-05
-4.96887e-05
3.8092e-05
-7.00648e-05
4.15998e-05
-9.07436e-05
4.24763e-05
-0.000110636
4.12272e-05
-0.000129031
3.86152e-05
-0.000145663
3.55259e-05
3.30374e-05
-0.000160804
-4.30817e-06
1.33641e-05
-1.46738e-05
3.23505e-05
-2.94194e-05
4.63659e-05
-4.6911e-05
5.55836e-05
-6.55914e-05
6.02802e-05
-8.40434e-05
6.09283e-05
-0.000101076
5.82601e-05
-0.000115864
5.34031e-05
-0.000128034
4.76961e-05
4.27438e-05
-0.000137741
-4.04774e-06
1.74118e-05
-1.36688e-05
4.19715e-05
-2.71492e-05
5.98462e-05
-4.27942e-05
7.12287e-05
-5.89592e-05
7.64452e-05
-7.41078e-05
7.6077e-05
-8.68989e-05
7.10512e-05
-9.63337e-05
6.2838e-05
-0.000101878
5.32405e-05
4.43799e-05
-0.000103514
-3.7079e-06
2.11197e-05
-1.23535e-05
5.06172e-05
-2.41736e-05
7.16664e-05
-3.73942e-05
8.44492e-05
-5.02559e-05
8.93068e-05
-6.10673e-05
8.68884e-05
-6.82886e-05
7.82724e-05
-7.0691e-05
6.52404e-05
-6.75412e-05
5.00907e-05
3.5365e-05
-5.85263e-05
-3.29421e-06
2.44139e-05
-1.07467e-05
5.80697e-05
-2.05322e-05
8.14519e-05
-3.07793e-05
9.46963e-05
-3.95898e-05
9.81173e-05
-4.50834e-05
9.23819e-05
-4.54765e-05
7.86655e-05
-3.92409e-05
5.90048e-05
-2.53966e-05
3.62464e-05
1.42049e-05
-4.23653e-06
-2.81279e-06
2.72267e-05
-8.86909e-06
6.41259e-05
-1.62687e-05
8.88515e-05
-2.30262e-05
0.000101454
-2.7083e-05
0.000102174
-2.63396e-05
9.16385e-05
-1.87296e-05
7.10555e-05
-2.40402e-06
4.26792e-05
2.41583e-05
9.6841e-06
-2.27847e-05
6.11479e-05
-2.26984e-06
2.94965e-05
-6.74192e-06
6.8598e-05
-1.14281e-05
9.35377e-05
-1.42146e-05
0.00010424
-1.28634e-05
0.000100823
-5.03105e-06
8.38061e-05
1.16729e-05
5.43516e-05
3.95091e-05
1.48431e-05
8.02383e-05
-3.10451e-05
-7.72042e-05
0.000134658
-1.67114e-06
3.11677e-05
-4.38539e-06
7.13123e-05
-6.05424e-06
9.52065e-05
-4.42198e-06
0.000102608
2.94271e-06
9.34583e-05
1.86466e-05
6.81022e-05
4.54327e-05
2.75654e-05
8.60002e-05
-2.57244e-05
0.000142595
-8.76404e-05
-0.000150943
0.000216334
-1.0217e-06
3.21894e-05
-1.81729e-06
7.21079e-05
-1.85025e-07
9.35743e-05
6.28073e-06
9.61423e-05
2.02186e-05
7.95204e-05
4.45107e-05
4.38102e-05
8.22719e-05
-1.01958e-05
0.000136689
-8.01415e-05
0.000210563
-0.000161515
-0.000245808
0.000305428
-3.2575e-07
3.25151e-05
9.46998e-07
7.08351e-05
6.14314e-06
8.83781e-05
1.78329e-05
8.44526e-05
3.88638e-05
5.84895e-05
7.23995e-05
1.02745e-05
0.000121936
-5.97324e-05
0.00019118
-0.000149386
0.000283573
-0.000253907
-0.000363311
0.000401076
4.15515e-07
3.20996e-05
3.89723e-06
6.73534e-05
1.2908e-05
7.93674e-05
3.01869e-05
6.71737e-05
5.87973e-05
2.98791e-05
0.000102181
-3.3109e-05
0.000164209
-0.00012176
0.000249122
-0.000234299
0.000361085
-0.00036587
-0.000504946
0.00050272
1.19874e-06
3.09009e-05
7.02589e-06
6.15263e-05
2.00895e-05
6.63037e-05
4.3307e-05
4.39563e-05
7.99589e-05
-6.77287e-06
0.000133756
-8.69057e-05
0.00020892
-0.000196925
0.000310214
-0.000335593
0.000442595
-0.00049825
-0.000671878
0.000609527
2.02461e-06
2.88763e-05
1.03278e-05
5.3223e-05
2.76739e-05
4.89577e-05
5.71664e-05
1.44637e-05
0.000102306
-5.1912e-05
0.000167057
-0.000151657
0.000255955
-0.000285823
0.000374228
-0.000453867
0.000527648
-0.00065167
-0.000864971
0.000720741
2.89284e-06
2.59834e-05
1.37989e-05
4.23169e-05
3.56484e-05
2.71082e-05
7.17411e-05
-2.16289e-05
0.000125801
-0.000105972
0.000202038
-0.000227893
0.000305245
-0.00038903
0.000441022
-0.000589643
0.000615887
-0.000826535
-0.0010847
0.000835616
3.80306e-06
2.21804e-05
1.74335e-05
2.86865e-05
4.39964e-05
5.45331e-07
8.69996e-05
-6.46321e-05
0.000150402
-0.000169375
0.000238652
-0.000316143
0.000356755
-0.000507133
0.000510549
-0.000743437
0.00070709
-0.00102308
-0.00133103
0.000953424
4.75382e-06
1.74265e-05
2.12218e-05
1.22185e-05
5.26909e-05
-3.09238e-05
0.000102891
-0.000114832
0.000176032
-0.000242517
0.000276817
-0.000416929
0.000410439
-0.000640754
0.000582839
-0.000915837
0.000801213
-0.00124145
-0.0016034
0.00107358
5.74193e-06
1.16846e-05
2.51471e-05
-7.1866e-06
6.16888e-05
-6.74655e-05
0.000119329
-0.000172472
0.000202556
-0.000325744
0.000316366
-0.000530739
0.000466188
-0.000790577
0.000657992
-0.00110764
0.00089842
-0.00148188
-0.00190099
0.001196
6.76192e-06
4.92269e-06
2.91846e-05
-2.96093e-05
7.09256e-05
-0.000109207
0.000136184
-0.000237731
0.000229746
-0.000419306
0.000356978
-0.00065797
0.000523744
-0.000957343
0.000736304
-0.0013202
0.000999689
-0.00174526
-0.00222328
0.00132198
7.80613e-06
-2.88344e-06
3.33012e-05
-5.51043e-05
8.03146e-05
-0.00015622
0.00015327
-0.000310686
0.00025725
-0.000523285
0.000398051
-0.000798772
0.000582305
-0.0011416
0.000817702
-0.0015556
0.00111015
-0.00203771
-0.00256699
0.00145387
8.86536e-06
-1.17488e-05
3.74576e-05
-8.36966e-05
8.97521e-05
-0.000208514
0.000170356
-0.00039129
0.000284585
-0.000637514
0.000438597
-0.000952784
0.000639758
-0.00134276
0.000897766
-0.00181361
0.00123187
-0.00237181
-0.00304667
0.00171154
9.93016e-06
-2.1679e-05
4.16135e-05
-0.00011538
9.91308e-05
-0.000266032
0.0001872
-0.00047936
0.000311234
-0.000761548
0.000477457
-0.00111901
0.000693243
-0.00155854
0.00096802
-0.00208838
0.0013169
-0.00272069
-0.00348846
0.00175869
1.09922e-05
-3.26711e-05
4.57322e-05
-0.00015012
0.000108355
-0.000328654
0.000203596
-0.000574602
0.000336794
-0.000894746
0.000513889
-0.0012961
0.000741485
-0.00178614
0.00102687
-0.00237377
0.00137812
-0.00307194
-0.00390807
0.00179773
1.2045e-05
-4.47161e-05
4.9784e-05
-0.000187859
0.000117347
-0.000396217
0.000219392
-0.000676647
0.000361015
-0.00103637
0.000547595
-0.00148268
0.000784529
-0.00202307
0.00107655
-0.00266578
0.0014262
-0.0034216
-0.00431015
0.00182828
1.30839e-05
-5.78e-05
5.37455e-05
-0.000228521
0.000126049
-0.000468521
0.000234479
-0.000785077
0.000383751
-0.00118564
0.000578497
-0.00167743
0.000822725
-0.0022673
0.00111877
-0.00296183
0.00146526
-0.00376809
-0.00469769
0.00185281
1.41054e-05
-7.19054e-05
5.75977e-05
-0.000272013
0.000134413
-0.000545336
0.000248775
-0.000899438
0.000404903
-0.00134177
0.000606561
-0.00187908
0.000856331
-0.00251707
0.00115441
-0.00325991
0.00149666
-0.00411035
-0.0050725
0.00187148
1.51063e-05
-8.70117e-05
6.13226e-05
-0.000318229
0.000142394
-0.000626408
0.000262201
-0.00101924
0.000424374
-0.00150394
0.000631728
-0.00208644
0.000885436
-0.00277078
0.00118383
-0.0035583
0.00152074
-0.00444726
-0.0054351
0.00188334
1.60827e-05
-0.000103094
6.49002e-05
-0.000367047
0.000149944
-0.000711451
0.000274672
-0.00114397
0.000442047
-0.00167132
0.00065388
-0.00229827
0.000909971
-0.00302687
0.00120701
-0.00385534
0.00153729
-0.00477754
-0.0057851
0.00188729
1.70293e-05
-0.000120124
6.83066e-05
-0.000418324
0.000157005
-0.00080015
0.000286089
-0.00127306
0.000457777
-0.00184301
0.000672838
-0.00251333
0.000929739
-0.00328377
0.00122371
-0.00414931
0.00154585
-0.00509969
-0.00612153
0.00188228
1.79393e-05
-0.000138063
7.15128e-05
-0.000471897
0.000163511
-0.000892147
0.000296333
-0.00140588
0.000471389
-0.00201806
0.000688374
-0.00273032
0.000944466
-0.00353986
0.00123359
-0.00443844
0.00154592
-0.00541201
-0.00644308
0.00186747
1.88038e-05
-0.000156867
7.44846e-05
-0.000527578
0.000169385
-0.000987048
0.000305272
-0.00154177
0.000482689
-0.00219548
0.000700234
-0.00294786
0.000953849
-0.00379348
0.0012363
-0.0047209
0.00153705
-0.00571275
-0.00674829
0.00184226
1.96126e-05
-0.000176479
7.71832e-05
-0.000585149
0.000174544
-0.00108441
0.000312763
-0.00167999
0.000491472
-0.00237419
0.000708159
-0.00316455
0.00095759
-0.00404291
0.00123152
-0.00499483
0.00151892
-0.00600014
-0.00703568
0.0018063
2.0354e-05
-0.000196833
7.95664e-05
-0.000644361
0.000178898
-0.00118374
0.000318661
-0.00181975
0.000497533
-0.00255306
0.000711903
-0.00337892
0.000955435
-0.00428644
0.00121903
-0.00525843
0.00149136
-0.00627247
-0.00730385
0.00175953
2.10156e-05
-0.000217849
8.15902e-05
-0.000704936
0.000182356
-0.00128451
0.000322822
-0.00196022
0.000500682
-0.00273092
0.000711252
-0.00358949
0.000947189
-0.00452238
0.00119871
-0.00550995
0.00145439
-0.00652815
-0.00755155
0.00170209
2.15844e-05
-0.000239433
8.32099e-05
-0.000766561
0.000184831
-0.00138613
0.00032511
-0.00210049
0.000500752
-0.00290656
0.000706038
-0.00379478
0.000932731
-0.00474907
0.00117054
-0.00574776
0.00140815
-0.00676576
-0.00777774
0.00163434
2.20474e-05
-0.000261481
8.43826e-05
-0.000828897
0.00018624
-0.00148798
0.000325407
-0.00223966
0.000497605
-0.00307876
0.000696145
-0.00399332
0.000912028
-0.00496495
0.00113463
-0.00597036
0.00135296
-0.00698408
-0.0079816
0.00155681
2.2392e-05
-0.000283873
8.50676e-05
-0.000891572
0.000186508
-0.00158942
0.000323611
-0.00237676
0.00049114
-0.00324629
0.000681519
-0.00418369
0.00088513
-0.00516856
0.00109121
-0.00617645
0.00128924
-0.00718211
-0.00816252
0.00147016
2.26065e-05
-0.000306479
8.52285e-05
-0.000954194
0.000185571
-0.00168977
0.000319645
-0.00251084
0.000481298
-0.00340794
0.000662166
-0.00436456
0.000852169
-0.00535857
0.00104059
-0.00636486
0.00121753
-0.00735905
-0.00832016
0.00137516
2.268e-05
-0.000329159
8.48336e-05
-0.00101635
0.00018338
-0.00178831
0.000313459
-0.00264092
0.000468062
-0.00356255
0.000638155
-0.00453466
0.000813357
-0.00553377
0.000983162
-0.00653467
0.00113844
-0.00751433
-0.00845432
0.00127261
2.26033e-05
-0.000351763
8.38576e-05
-0.0010776
0.0001799
-0.00188436
0.000305028
-0.00276605
0.000451459
-0.00370898
0.000609614
-0.00469281
0.000768974
-0.00569313
0.000919408
-0.0066851
0.00105266
-0.00764758
-0.00856506
0.00116339
2.23688e-05
-0.000374131
8.22817e-05
-0.00113751
0.000175109
-0.00197718
0.000294357
-0.00288529
0.000431558
-0.00384618
0.000576726
-0.00483798
0.00071936
-0.00583576
0.000849848
-0.00681559
0.000960883
-0.00775861
-0.00865253
0.00104836
2.19703e-05
-0.000396102
8.00938e-05
-0.00119564
0.000169004
-0.00206609
0.000281478
-0.00299777
0.000408469
-0.00397317
0.000539723
-0.00496923
0.000664907
-0.00596095
0.000775048
-0.00692573
0.000863844
-0.00784741
-0.00871705
0.000928369
2.1404e-05
-0.000417506
7.729e-05
-0.00125152
0.000161598
-0.0021504
0.000266452
-0.00310262
0.00038234
-0.00408906
0.000498878
-0.00508577
0.000606043
-0.00606811
0.000695595
-0.00701528
0.000762267
-0.00791408
-0.00875904
0.000804259
2.06677e-05
-0.000438174
7.38736e-05
-0.00130473
0.000152919
-0.00222945
0.000249364
-0.00319907
0.00035335
-0.00419304
0.000454502
-0.00518692
0.000543226
-0.00615684
0.00061209
-0.00708415
0.000656866
-0.00795886
-0.008779
0.00067682
1.97618e-05
-0.000457935
6.98554e-05
-0.00135482
0.000143012
-0.0023026
0.000230323
-0.00328638
0.000321709
-0.00428443
0.000406934
-0.00527215
0.000476933
-0.00622683
0.000525136
-0.00713235
0.000548338
-0.00798206
-0.00877745
0.000546796
1.86884e-05
-0.000476624
6.52537e-05
-0.00140139
0.000131935
-0.00236928
0.00020946
-0.0033639
0.000287654
-0.00436262
0.000356534
-0.00534103
0.000407655
-0.00627796
0.00043533
-0.00716003
0.000437346
-0.00798408
-0.00875498
0.000414871
1.74519e-05
-0.000494076
6.00939e-05
-0.00144403
0.000119759
-0.00242895
0.000186924
-0.00343107
0.000251438
-0.00442714
0.000303682
-0.00539327
0.000335886
-0.00631016
0.000343252
-0.00716739
0.00032452
-0.00796534
-0.00871215
0.00028169
1.60585e-05
-0.000510134
5.44075e-05
-0.00148238
0.000106568
-0.00248111
0.000162881
-0.00348738
0.000213334
-0.00447759
0.000248766
-0.0054287
0.000262126
-0.00632352
0.000249476
-0.00715474
0.000210407
-0.00792628
-0.00864963
0.000147885
1.45165e-05
-0.000524651
4.82323e-05
-0.0015161
9.24567e-05
-0.00252533
0.000137507
-0.00353243
0.000173624
-0.00451371
0.000192182
-0.00544726
0.00018688
-0.00631822
0.000154617
-0.00712248
9.55361e-05
-0.00786719
-0.00856555
1.14567e-05
1.28357e-05
-0.000537486
4.16109e-05
-0.00154487
7.75263e-05
-0.00256125
0.00011099
-0.0035659
0.000132597
-0.00453531
0.000134325
-0.00544899
0.000110628
-0.00629452
5.92217e-05
-0.00707107
-1.85444e-05
-0.00778943
-0.00846446
-0.000119638
1.10278e-05
-0.000548514
3.45903e-05
-0.00156843
6.18854e-05
-0.00258854
8.35216e-05
-0.00358753
9.05442e-05
-0.00454234
7.55822e-05
-0.00543403
3.38326e-05
-0.00625277
-3.63149e-05
-0.00700092
-0.000133248
-0.0076925
-0.0083456
-0.000252105
9.10549e-06
-0.00055762
2.72207e-05
-0.00158655
4.56463e-05
-0.00260697
5.52979e-05
-0.00359718
4.77535e-05
-0.00453479
1.63385e-05
-0.00540261
-4.30466e-05
-0.00619339
-0.000131392
-0.00691258
-0.000246559
-0.00757733
-0.00820883
-0.000383325
7.08289e-06
-0.000564703
1.95548e-05
-0.00159902
2.89241e-05
-0.00261634
2.6513e-05
-0.00359477
4.52101e-06
-0.0045128
-4.30461e-05
-0.00535505
-0.000119564
-0.00611687
-0.000225531
-0.00680661
-0.000358469
-0.00744439
-0.00805451
-0.000512792
4.97563e-06
-0.000569678
1.16465e-05
-0.00160569
1.18341e-05
-0.00261653
-2.62926e-06
-0.00358031
-3.8919e-05
-0.00447651
-0.000102215
-0.00529175
-0.000195295
-0.00602379
-0.000318258
-0.00668365
-0.000468497
-0.00729415
-0.0078829
-0.000640103
2.80475e-06
-0.000572483
3.54901e-06
-0.00160644
-5.51411e-06
-0.00260746
-3.19911e-05
-0.00355383
-8.22769e-05
-0.00442622
-0.00016084
-0.00521319
-0.000269837
-0.00591479
-0.000409097
-0.00654439
-0.000576145
-0.0071271
-0.00769419
-0.000764861
5.36787e-07
-0.00057302
-4.68729e-06
-0.00160121
-2.30123e-05
-0.00258914
-6.13516e-05
-0.00351549
-0.000125324
-0.00436225
-0.000218621
-0.00511989
-0.000342821
-0.00579059
-0.000497586
-0.00638962
-0.000680896
-0.00694379
-0.00748838
-0.000886707
-1.73948e-06
-0.00057128
-1.3004e-05
-0.00158995
-4.05503e-05
-0.00256159
-9.0566e-05
-0.00346548
-0.000167848
-0.00428497
-0.000275297
-0.00501244
-0.000413917
-0.00565197
-0.000583286
-0.00622026
-0.000782218
-0.00674486
-0.00726529
-0.00100531
-4.03707e-06
-0.000567243
-2.13507e-05
-0.00157263
-5.80311e-05
-0.00252491
-0.000119486
-0.00340402
-0.000209658
-0.0041948
-0.000330646
-0.00489145
-0.000482858
-0.00549976
-0.000665805
-0.00603731
-0.000879498
-0.00653117
-0.00702473
-0.00112005
-6.35508e-06
-0.000560888
-2.96807e-05
-0.00154931
-7.53613e-05
-0.00247923
-0.000147975
-0.00333141
-0.000250592
-0.00409218
-0.000384494
-0.00475755
-0.000549452
-0.0053348
-0.000744816
-0.00584194
-0.000971752
-0.00630423
-0.00676605
-0.00123043
-8.67173e-06
-0.000552216
-3.7946e-05
-0.00152003
-9.24528e-05
-0.00242472
-0.00017591
-0.00324795
-0.000290508
-0.00397758
-0.000436718
-0.00461134
-0.000613632
-0.00515789
-0.000820151
-0.00563543
-0.00105834
-0.00606604
-0.00648652
-0.00133787
-1.09718e-05
-0.000541245
-4.61005e-05
-0.00148491
-0.000109221
-0.0023616
-0.000203174
-0.003154
-0.000329278
-0.00385148
-0.000487234
-0.00445338
-0.000675511
-0.00496961
-0.000892083
-0.00541885
-0.00113354
-0.00582458
-0.00621415
-0.00140592
-1.32414e-05
-0.000528003
-5.41e-05
-0.00144405
-0.000125587
-0.00229012
-0.000229653
-0.00304993
-0.000366772
-0.00371436
-0.000535935
-0.00428422
-0.000735084
-0.00477046
-0.00096179
-0.00519215
-0.00121346
-0.00557291
-0.0059358
-0.0014918
-1.54669e-05
-0.000512536
-6.19024e-05
-0.00139761
-0.000141472
-0.00221055
-0.000255238
-0.00293617
-0.000402851
-0.00356675
-0.000582639
-0.00410443
-0.000792078
-0.00456102
-0.00102846
-0.00495577
-0.00128939
-0.00531199
-0.00565087
-0.00157432
-1.76357e-05
-0.000494901
-6.94681e-05
-0.00134578
-0.000156806
-0.00212321
-0.00027983
-0.00281314
-0.000437391
-0.00340919
-0.000627186
-0.00391464
-0.00084626
-0.00434195
-0.00109163
-0.00471039
-0.00136083
-0.00504279
-0.00535911
-0.00165258
-1.97359e-05
-0.000475165
-7.67607e-05
-0.00128875
-0.000171524
-0.00202845
-0.00030334
-0.00268132
-0.000470287
-0.00324224
-0.000669465
-0.00371546
-0.000897522
-0.00411389
-0.00115124
-0.00445667
-0.00142805
-0.00476598
-0.00506077
-0.0017264
-2.17564e-05
-0.000453408
-8.37469e-05
-0.00122676
-0.00018557
-0.00192662
-0.000325693
-0.0025412
-0.000501455
-0.00306648
-0.0007094
-0.00350752
-0.000945813
-0.00387748
-0.00120729
-0.00419519
-0.00149122
-0.00448205
-0.00475606
-0.00179593
-2.36872e-05
-0.000429721
-9.03969e-05
-0.00116005
-0.000198892
-0.00181813
-0.000346822
-0.00239327
-0.000530827
-0.00288247
-0.000746932
-0.00329141
-0.000991104
-0.0036333
-0.0012598
-0.0039265
-0.0015504
-0.00419145
-0.00444522
-0.00186124
-2.55192e-05
-0.000404202
-9.66837e-05
-0.00108889
-0.000211446
-0.00170337
-0.000366673
-0.00223804
-0.000558345
-0.0026908
-0.000782014
-0.00306774
-0.00103337
-0.00338195
-0.00130877
-0.0036511
-0.00160562
-0.00389461
-0.00412848
-0.00192235
-2.72439e-05
-0.000376958
-0.000102583
-0.00101355
-0.000223191
-0.00158276
-0.000385194
-0.00207604
-0.00058396
-0.00249203
-0.000814608
-0.00283709
-0.00107259
-0.00312396
-0.0013542
-0.00336949
-0.00165689
-0.00359192
-0.00380613
-0.00197923
-2.88538e-05
-0.000348104
-0.000108073
-0.000934331
-0.000234092
-0.00145674
-0.000402343
-0.00190779
-0.000607627
-0.00228675
-0.000844676
-0.00260005
-0.00110874
-0.0028599
-0.00139606
-0.00308217
-0.00170418
-0.00328379
-0.0034785
-0.00203182
-3.03418e-05
-0.000317762
-0.000113133
-0.000851539
-0.000244117
-0.00132576
-0.00041808
-0.00173383
-0.000629307
-0.00207552
-0.000872183
-0.00235717
-0.00114178
-0.0025903
-0.00143434
-0.00278962
-0.00174747
-0.00297066
-0.00314592
-0.00208004
-3.17017e-05
-0.000286061
-0.000117747
-0.000765495
-0.000253236
-0.00119027
-0.000432369
-0.00155469
-0.000648962
-0.00185893
-0.000897095
-0.00210904
-0.0011717
-0.0023157
-0.00146899
-0.00249233
-0.00178669
-0.00265296
-0.0028088
-0.00212381
-3.29276e-05
-0.000253133
-0.000121896
-0.000676526
-0.000261424
-0.00105074
-0.000445178
-0.00137094
-0.000666559
-0.00163755
-0.000919379
-0.00185622
-0.00119845
-0.00203663
-0.00149998
-0.00219079
-0.00182179
-0.00233115
-0.00246757
-0.00216302
-3.40144e-05
-0.000219119
-0.000125567
-0.000584973
-0.000268656
-0.00090765
-0.000456477
-0.00118312
-0.000682066
-0.00141196
-0.000939004
-0.00159928
-0.001222
-0.00175363
-0.00152728
-0.00188551
-0.00185273
-0.0020057
-0.00212269
-0.00219761
-3.49572e-05
-0.000184162
-0.000128747
-0.000491184
-0.000274911
-0.000761485
-0.000466239
-0.000991791
-0.000695454
-0.00118274
-0.000955941
-0.00133879
-0.00124233
-0.00146724
-0.00155085
-0.00157699
-0.00187945
-0.0016771
-0.00177465
-0.00222749
-3.57519e-05
-0.00014841
-0.000131423
-0.000395513
-0.00028017
-0.000612737
-0.00047444
-0.000797522
-0.000706696
-0.000950488
-0.000970163
-0.00107533
-0.0012594
-0.001178
-0.00157066
-0.00126574
-0.00190193
-0.00134583
-0.00142396
-0.00225262
-3.63948e-05
-0.000112015
-0.000133585
-0.000298323
-0.000284417
-0.000461906
-0.000481058
-0.00060088
-0.000715767
-0.000715779
-0.000981643
-0.000809449
-0.0012732
-0.000886446
-0.00158669
-0.00095225
-0.00192013
-0.00101239
-0.00107112
-0.00227297
-3.68829e-05
-7.5132e-05
-0.000135225
-0.00019998
-0.000287635
-0.000309496
-0.000486074
-0.000402442
-0.000722645
-0.000479209
-0.000990357
-0.000541737
-0.00128369
-0.000593111
-0.00159891
-0.000637035
-0.00193405
-0.000677245
-0.000716628
-0.00228855
-3.72135e-05
-3.79185e-05
-0.000136335
-0.000100859
-0.000289814
-0.000156017
-0.000489471
-0.000202784
-0.000727309
-0.000241371
-0.000996279
-0.000272766
-0.00129085
-0.00029854
-0.0016073
-0.000320585
-0.00194369
-0.000340851
-0.000360929
-0.00229939
-3.7385e-05
-5.3351e-07
-0.00013691
-1.33312e-06
-0.000290944
-1.98334e-06
-0.000491237
-2.49183e-06
-0.000729741
-2.86635e-06
-0.000999386
-3.12152e-06
-0.00129464
-3.2844e-06
-0.00161182
-3.40492e-06
-0.00194909
-3.58232e-06
-3.99054e-06
-0.00230603
-3.73959e-05
3.68624e-05
-0.000136947
9.8218e-05
-0.000291018
0.000152088
-0.000491359
0.000197849
-0.000729926
0.0002357
-0.000999652
0.000266605
-0.00129502
0.000292086
-0.00161238
0.000313953
-0.00194998
0.000334017
0.000353679
-0.00230765
-3.72459e-05
7.41083e-05
-0.000136443
0.000197415
-0.000290033
0.000305677
-0.000489834
0.00039765
-0.000727853
0.00047372
-0.00099706
0.000535812
-0.00129196
0.000586983
-0.00160889
0.000630889
-0.0019461
0.000671224
0.000710877
-0.0023033
-3.69352e-05
0.000111043
-0.0001354
0.00029588
-0.000287989
0.000458266
-0.000486659
0.00059632
-0.00072352
0.00071058
-0.000991602
0.000803894
-0.00128543
0.000880811
-0.00160134
0.000946798
-0.00193751
0.00100739
0.00106692
-0.00229355
-3.64649e-05
0.000147508
-0.00013382
0.000393235
-0.000284892
0.000609338
-0.000481841
0.000793269
-0.000716931
0.00094567
-0.000983283
0.00107025
-0.00127545
0.00117298
-0.00158975
0.00126109
-0.00192428
0.00134192
0.0014212
-0.00227856
-3.58371e-05
0.000183345
-0.000131709
0.000489107
-0.000280748
0.000758378
-0.000475389
0.00098791
-0.000708099
0.00117838
-0.000972119
0.00133427
-0.00126204
0.0014629
-0.00157415
0.0015732
-0.00190649
0.00167426
0.00177316
-0.00225845
-3.50543e-05
0.0002184
-0.000129073
0.000583126
-0.000275572
0.000904876
-0.000467321
0.00117966
-0.000697042
0.0014081
-0.000958132
0.00159536
-0.00124524
0.00175001
-0.00155461
0.00188258
-0.00188421
0.00200385
0.00212229
-0.00223333
-3.41201e-05
0.00025252
-0.000125924
0.00067493
-0.000269377
0.00104833
-0.000457655
0.00136794
-0.000683787
0.00163423
-0.000941353
0.00185292
-0.00122507
0.00203373
-0.00153118
0.00218868
-0.00185752
0.0023302
0.00246808
-0.00220332
-3.30386e-05
0.000285558
-0.000122272
0.000764163
-0.000262185
0.00118824
-0.000446419
0.00155217
-0.000668361
0.00185618
-0.000921816
0.00210638
-0.00120159
0.00231351
-0.0015039
0.00249099
-0.00182652
0.00265282
0.00281009
-0.00216852
-3.18148e-05
0.000317373
-0.000118132
0.00085048
-0.000254017
0.00132413
-0.00043364
0.00173179
-0.000650799
0.00207333
-0.00089956
0.00235514
-0.00117484
0.00258879
-0.00147285
0.00278899
-0.00179126
0.00297123
0.00314787
-0.00212904
-3.04543e-05
0.000347827
-0.000113518
0.000933544
-0.000244898
0.00145551
-0.000419351
0.00190625
-0.000631138
0.00228512
-0.000874624
0.00259863
-0.00114487
0.00285904
-0.00143808
0.0030822
-0.00175184
0.003285
0.00348101
-0.00208498
-2.8963e-05
0.00037679
-0.000108449
0.00101303
-0.000234858
0.00158192
-0.00040359
0.00207498
-0.000609418
0.00249095
-0.00084705
0.00283626
-0.00111171
0.0031237
-0.00139963
0.00337012
-0.00170832
0.00359368
0.00380915
-0.00203646
-2.73479e-05
0.000404138
-0.000102944
0.00108863
-0.000223928
0.0017029
-0.000386395
0.00223745
-0.000585681
0.00269023
-0.00081688
0.00306746
-0.00107542
0.00338224
-0.00135757
0.00365227
-0.00166076
0.00389688
0.00413195
-0.00198356
-2.56162e-05
0.000429755
-9.70238e-05
0.00116003
-0.000212143
0.00181802
-0.00036781
0.00239311
-0.000559974
0.0028824
-0.000784156
0.00329164
-0.00103602
0.00363411
-0.00131191
0.00392815
-0.00160921
0.00419417
0.0044491
-0.00192636
-2.37761e-05
0.000453531
-9.07114e-05
0.00122697
-0.00019954
0.00192685
-0.000347883
0.00254145
-0.000532345
0.00306686
-0.000748923
0.00350822
-0.000993557
0.00387874
-0.00126269
0.00419728
-0.00155368
0.00448517
0.00476033
-0.00186491
-2.18362e-05
0.000475367
-8.40327e-05
0.00128917
-0.000186163
0.00202898
-0.000326666
0.00268196
-0.000502849
0.00324304
-0.000711224
0.00371659
-0.000948051
0.00411557
-0.00120991
0.00445914
-0.00149418
0.00476944
0.00506539
-0.00179924
-1.98062e-05
0.000495173
-7.70157e-05
0.00134638
-0.000172058
0.00212402
-0.00030422
0.00281412
-0.000471549
0.00341037
-0.000671114
0.00391616
-0.000899533
0.00434399
-0.00115357
0.00471318
-0.00143067
0.00504654
0.00536403
-0.00172932
-1.76963e-05
0.000512869
-6.96914e-05
0.00139837
-0.000157278
0.00221161
-0.000280613
0.00293745
-0.000438516
0.00356828
-0.000628654
0.00410629
-0.000848041
0.00456338
-0.00109368
0.00495882
-0.00136309
0.00531595
0.00565603
-0.00165508
-1.55178e-05
0.000528387
-6.20939e-05
0.00144495
-0.000141881
0.00229139
-0.000255923
0.0030515
-0.000403839
0.00371619
-0.000583927
0.00428638
-0.000793632
0.00477308
-0.00103022
0.00519541
-0.00129129
0.00557701
0.00594109
-0.00157635
-1.32829e-05
0.00054167
-5.42604e-05
0.00148592
-0.000125935
0.00236307
-0.000230241
0.0031558
-0.000367625
0.00385358
-0.000537049
0.00445581
-0.00073642
0.00497245
-0.000963278
0.00542227
-0.001215
0.00582873
0.00621941
-0.00149332
-1.10045e-05
0.000552675
-4.6231e-05
0.00152115
-0.000109511
0.00242635
-0.000203669
0.00324996
-0.000330003
0.00397991
-0.000488185
0.00461399
-0.000676647
0.00516091
-0.000893321
0.00563894
-0.00113477
0.00607018
0.00649128
-0.00140664
-8.6962e-06
0.000561371
-3.80483e-05
0.0015505
-9.26858e-05
0.00248099
-0.000176317
0.00333359
-0.000291111
0.00409471
-0.000437515
0.00476039
-0.000614589
0.00533799
-0.000821193
0.00584554
-0.00105934
0.00630832
0.00677056
-0.00133862
-6.37197e-06
0.000567743
-2.97567e-05
0.00157389
-7.55415e-05
0.00252677
-0.000148298
0.00340635
-0.000251081
0.00419749
-0.000385148
0.00489446
-0.000550242
0.00550308
-0.000745677
0.00604098
-0.000972566
0.00653521
0.00702894
-0.00123095
-4.04706e-06
0.00057179
-2.14024e-05
0.00159124
-5.81621e-05
0.00256353
-0.000119731
0.00346792
-0.000210039
0.0042878
-0.000331164
0.00501558
-0.000483486
0.0056554
-0.000666484
0.00622398
-0.000880103
0.00674883
0.00726923
-0.00112039
-1.74328e-06
0.000573533
-1.30336e-05
0.00160253
-4.06359e-05
0.00259113
-9.0738e-05
0.00351802
-0.000168127
0.00436518
-0.000275686
0.00512314
-0.000414392
0.00579411
-0.000583787
0.00639337
-0.000782632
0.00694768
0.00749207
-0.00100548
5.38563e-07
0.000572994
-4.69679e-06
0.00160777
-2.30563e-05
0.00260949
-6.14563e-05
0.00355642
-0.000125509
0.00442924
-0.00021889
0.00521652
-0.000343151
0.00591837
-0.000497923
0.00654814
-0.000681139
0.00713089
0.00769766
-0.000886733
2.81136e-06
0.000570183
3.55746e-06
0.00160702
-5.52044e-06
0.00261857
-3.20341e-05
0.00358293
-8.23746e-05
0.00447958
-0.000160997
0.00529515
-0.000270034
0.00602741
-0.000409285
0.0066874
-0.000576238
0.00729785
0.00788619
-0.000764768
4.98644e-06
0.000565197
1.16709e-05
0.00160034
1.18616e-05
0.00261838
-2.61605e-06
0.00359741
-3.89366e-05
0.0045159
-0.000102269
0.00535848
-0.00019537
0.00612051
-0.000318311
0.00681034
-0.000468461
0.007448
0.00805764
-0.000639911
7.0973e-06
0.000558099
1.9593e-05
0.00158784
2.89816e-05
0.00260899
2.65765e-05
0.00359981
4.57579e-06
0.0045379
-4.30061e-05
0.00540606
-0.000119528
0.00619703
-0.000225465
0.00691627
-0.000358322
0.00758085
0.00821184
-0.000512519
9.12289e-06
0.000548976
2.72708e-05
0.0015697
4.57302e-05
0.00259053
5.54062e-05
0.00359014
4.78736e-05
0.00454543
1.6463e-05
0.00543747
-4.29111e-05
0.00625641
-0.00013122
0.00700458
-0.000246315
0.00769595
0.00834851
-0.000382983
1.10476e-05
0.000537929
3.46505e-05
0.00154609
6.19919e-05
0.00256319
8.36692e-05
0.00356846
9.0722e-05
0.00453838
7.57821e-05
0.00545241
3.40567e-05
0.00629813
-3.605e-05
0.00707469
-0.00013292
0.00779282
0.00846729
-0.000251704
1.28575e-05
0.000525071
4.16794e-05
0.00151727
7.76521e-05
0.00252722
0.000111171
0.00353494
0.000132826
0.00451673
0.000134592
0.00545064
0.00011093
0.00632179
5.95693e-05
0.00712605
-1.81325e-05
0.00787052
0.00856835
-0.000119191
1.45397e-05
0.000510532
4.83074e-05
0.0014835
9.25984e-05
0.00248293
0.000137717
0.00348982
0.000173896
0.00448055
0.000192507
0.00543203
0.000187251
0.00632705
0.000155035
0.00715827
9.60068e-05
0.00792955
0.00865234
1.20163e-05
1.60828e-05
0.000494449
5.44876e-05
0.0014451
0.000106723
0.00243069
0.000163115
0.00343343
0.000213643
0.00443002
0.00024914
0.00539654
0.000262557
0.00631363
0.000249956
0.00717087
0.00021093
0.00796857
0.00871485
0.000148426
1.74768e-05
0.000476972
6.01776e-05
0.0014024
0.000119923
0.00237095
0.000187178
0.00336618
0.000251778
0.00436542
0.000304099
0.00534422
0.000336368
0.00628136
0.000343786
0.00716345
0.000325092
0.00798727
0.00875766
0.000282276
1.87136e-05
0.000458259
6.53398e-05
0.00135577
0.000132106
0.00230418
0.000209729
0.00328855
0.000288019
0.00428713
0.000356987
0.00527525
0.000408181
0.00623017
0.000435912
0.00713572
0.000437964
0.00798522
0.00878013
0.000415494
1.97869e-05
0.000438472
6.99426e-05
0.00130561
0.000143188
0.00223093
0.000230603
0.00320114
0.000322094
0.00419564
0.000407416
0.00518993
0.000477496
0.00616009
0.00052576
0.00708745
0.000548996
0.00796198
0.00878167
0.000547455
2.06925e-05
0.000417779
7.3961e-05
0.00125235
0.000153098
0.0021518
0.000249651
0.00310459
0.00035375
0.00409154
0.000455008
0.00508867
0.00054382
0.00607128
0.00061275
0.00701852
0.000657562
0.00791717
0.00876172
0.000677513
2.14281e-05
0.000396351
7.73766e-05
0.0011964
0.000161777
0.0020674
0.000266743
0.00299962
0.00038275
0.00397553
0.000499401
0.00497202
0.000606663
0.00596401
0.000696286
0.0069289
0.000762996
0.00785046
0.00871973
0.000804985
2.19938e-05
0.000374357
8.01788e-05
0.00113821
0.000169182
0.00197839
0.00028177
0.00288703
0.000408885
0.00384842
0.000540258
0.00484064
0.000665547
0.00583873
0.000775765
0.00681868
0.000864603
0.00776162
0.00865521
0.000929127
2.23914e-05
0.000351966
8.23644e-05
0.00107824
0.000175284
0.00188547
0.000294647
0.00276767
0.000431975
0.00371109
0.000577269
0.00469535
0.000720015
0.00569598
0.000850586
0.00668811
0.00096167
0.00765054
0.00856773
0.00104914
2.26248e-05
0.000329341
8.39374e-05
0.00101693
0.00018007
0.00178934
0.000305314
0.00264242
0.000451875
0.00356453
0.000610161
0.00453706
0.000769638
0.0055365
0.000920163
0.00653758
0.00105347
0.00751723
0.008457
0.00116421
2.27004e-05
0.000306641
8.49102e-05
0.000954717
0.000183545
0.00169071
0.000313739
0.00251223
0.000468472