/*--------------------------------*- C++ -*----------------------------------*\
  =========                 |
  \\      /  F ield         | OpenFOAM: The Open Source CFD Toolbox
   \\    /   O peration     | Website:  https://openfoam.org
    \\  /    A nd           | Version:  7
     \\/     M anipulation  |
\*---------------------------------------------------------------------------*/
FoamFile
{
    version     2.0;
    format      ascii;
    class       volScalarField;
    location    "40";
    object      p;
}
// * * * * * * * * * * * * * * * * * * * * * * * * * * * * * * * * * * * * * //

dimensions      [0 2 -2 0 0 0 0];

internalField   nonuniform List<scalar> 
12772
(
-0.181551
-0.18348
-0.18439
-0.185128
-0.185764
-0.186325
-0.186833
-0.187296
-0.18771
-0.188087
-0.181816
-0.183724
-0.184624
-0.185353
-0.185982
-0.186537
-0.187041
-0.1875
-0.187913
-0.188278
-0.182268
-0.184135
-0.185011
-0.185718
-0.186327
-0.186863
-0.187348
-0.18779
-0.188182
-0.188505
-0.182901
-0.184706
-0.185546
-0.18622
-0.186795
-0.187299
-0.187749
-0.188157
-0.18851
-0.188751
-0.183707
-0.18543
-0.186223
-0.186849
-0.187378
-0.187833
-0.188233
-0.188589
-0.188884
-0.188998
-0.184674
-0.186299
-0.187032
-0.187598
-0.188064
-0.188457
-0.188788
-0.18907
-0.189292
-0.189215
-0.18579
-0.187303
-0.187964
-0.188455
-0.188845
-0.189157
-0.1894
-0.189585
-0.189721
-0.189366
-0.187044
-0.188431
-0.189008
-0.189411
-0.189706
-0.189922
-0.190055
-0.190116
-0.190159
-0.189403
-0.188424
-0.189675
-0.190155
-0.190454
-0.190638
-0.190739
-0.190741
-0.190643
-0.190605
-0.189251
-0.189918
-0.191025
-0.191396
-0.191574
-0.19163
-0.191596
-0.191447
-0.191152
-0.191079
-0.188821
-0.19152
-0.192474
-0.192723
-0.192763
-0.192671
-0.192485
-0.192164
-0.191618
-0.191602
-0.188169
-0.193223
-0.194019
-0.19413
-0.194014
-0.193755
-0.193397
-0.192886
-0.192019
-0.191921
-0.187517
-0.195028
-0.195657
-0.195615
-0.195322
-0.194875
-0.194326
-0.193616
-0.192544
-0.192076
-0.186595
-0.196937
-0.197392
-0.197178
-0.196685
-0.196028
-0.19527
-0.194332
-0.193043
-0.192262
-0.185377
-0.19896
-0.19923
-0.198823
-0.198105
-0.197214
-0.196227
-0.195047
-0.193526
-0.192447
-0.183963
-0.201113
-0.201185
-0.200559
-0.199587
-0.198434
-0.197196
-0.195762
-0.194034
-0.192557
-0.182521
-0.203418
-0.203272
-0.202398
-0.201141
-0.199695
-0.198182
-0.19647
-0.194599
-0.192477
-0.181228
-0.205905
-0.205516
-0.204362
-0.202785
-0.201011
-0.199193
-0.197171
-0.195259
-0.192017
-0.180193
-0.208611
-0.207941
-0.206479
-0.20454
-0.202404
-0.20025
-0.197883
-0.196047
-0.191083
-0.180167
-0.211585
-0.210586
-0.208778
-0.20644
-0.203903
-0.201382
-0.19864
-0.19692
-0.190055
-0.184466
-0.214875
-0.213493
-0.211296
-0.208522
-0.205551
-0.202631
-0.199482
-0.197683
-0.189578
-0.195652
-0.218532
-0.216709
-0.214079
-0.210833
-0.207395
-0.204042
-0.200461
-0.19821
-0.189822
-0.194772
-0.222617
-0.22028
-0.217173
-0.213423
-0.209491
-0.205666
-0.201622
-0.1986
-0.190334
-0.192007
-0.227189
-0.224253
-0.220628
-0.216345
-0.211893
-0.207548
-0.202977
-0.199017
-0.190745
-0.189297
-0.232302
-0.228679
-0.224494
-0.219649
-0.21465
-0.209727
-0.204523
-0.199507
-0.190927
-0.186567
-0.238006
-0.233601
-0.228819
-0.223386
-0.2178
-0.21222
-0.206251
-0.200054
-0.190801
-0.183921
-0.244344
-0.239062
-0.233646
-0.227595
-0.221368
-0.215031
-0.208134
-0.200607
-0.190344
-0.181292
-0.251349
-0.245097
-0.239016
-0.232311
-0.225365
-0.218141
-0.210123
-0.201087
-0.189548
-0.178601
-0.259038
-0.251731
-0.244959
-0.237551
-0.229782
-0.221506
-0.212137
-0.201404
-0.188404
-0.17577
-0.267416
-0.258981
-0.251491
-0.243316
-0.23459
-0.225054
-0.214074
-0.20147
-0.186897
-0.172727
-0.276467
-0.266845
-0.258611
-0.24958
-0.239728
-0.228676
-0.215816
-0.2012
-0.185008
-0.169413
-0.286152
-0.275302
-0.266291
-0.25629
-0.2451
-0.232233
-0.21724
-0.200518
-0.182709
-0.165772
-0.296405
-0.284306
-0.274473
-0.263358
-0.250568
-0.235565
-0.218227
-0.199356
-0.179963
-0.161754
-0.307127
-0.293778
-0.283064
-0.270657
-0.255956
-0.238503
-0.218666
-0.197646
-0.17673
-0.157307
-0.318186
-0.303606
-0.291933
-0.278016
-0.261055
-0.240876
-0.218447
-0.195325
-0.172962
-0.152383
-0.329413
-0.313637
-0.300906
-0.285217
-0.265642
-0.24252
-0.217471
-0.192326
-0.168604
-0.146931
-0.340602
-0.32368
-0.30977
-0.292007
-0.269485
-0.243278
-0.215641
-0.188583
-0.163601
-0.140903
-0.351508
-0.333505
-0.318268
-0.298107
-0.272357
-0.243001
-0.212862
-0.184027
-0.157895
-0.134253
-0.361856
-0.342847
-0.326111
-0.303224
-0.274041
-0.241553
-0.209046
-0.178592
-0.151427
-0.12694
-0.371341
-0.351409
-0.332982
-0.307067
-0.274334
-0.238807
-0.204107
-0.172208
-0.144142
-0.118924
-0.379637
-0.358873
-0.338546
-0.309355
-0.273053
-0.234647
-0.197964
-0.164812
-0.135984
-0.110169
-0.386406
-0.364904
-0.342469
-0.309829
-0.270031
-0.22897
-0.190544
-0.156343
-0.126908
-0.100645
-0.391307
-0.369162
-0.344428
-0.308254
-0.265126
-0.221684
-0.181778
-0.146746
-0.116874
-0.090333
-0.394006
-0.371311
-0.344122
-0.304427
-0.258218
-0.21271
-0.171604
-0.135969
-0.105851
-0.0792242
-0.394186
-0.371033
-0.341285
-0.298182
-0.249211
-0.201986
-0.159972
-0.123965
-0.0937995
-0.0672692
-0.391555
-0.368034
-0.335693
-0.289386
-0.238033
-0.189468
-0.146849
-0.110703
-0.0806582
-0.0543035
-0.38586
-0.362058
-0.327167
-0.277946
-0.224639
-0.175129
-0.13222
-0.096179
-0.0663859
-0.0400629
-0.376884
-0.352895
-0.315576
-0.263808
-0.209011
-0.15896
-0.116082
-0.0804127
-0.0510477
-0.02453
-0.364463
-0.34039
-0.300834
-0.246952
-0.191151
-0.140968
-0.0984407
-0.0634213
-0.0347327
-0.00855747
-0.348484
-0.32444
-0.282906
-0.227394
-0.17109
-0.121176
-0.0793352
-0.0452581
-0.0172602
0.0078613
-0.328886
-0.305
-0.2618
-0.205188
-0.148882
-0.0996431
-0.0588622
-0.0259346
0.00119581
0.0249465
-0.305667
-0.282082
-0.23758
-0.180424
-0.124607
-0.0764676
-0.0370488
-0.00548558
0.0205197
0.0427274
-0.278876
-0.255757
-0.210381
-0.153208
-0.0983521
-0.0517208
-0.0139599
0.0160048
0.0406387
0.0611305
-0.248617
-0.226162
-0.180404
-0.12361
-0.0702313
-0.0254954
0.0103094
0.0384473
0.0614841
0.0800504
-0.215055
-0.193502
-0.147755
-0.0917359
-0.0404142
0.0020773
0.035647
0.0617468
0.0829844
0.0994043
-0.178417
-0.158066
-0.112162
-0.0580609
-0.00907216
0.0308531
0.0619277
0.0858033
0.105056
0.119088
-0.138916
-0.120087
-0.074082
-0.0226382
0.0236
0.0606734
0.0890282
0.110523
0.12755
0.138719
-0.0967505
-0.0791759
-0.0346425
0.0142744
0.057416
0.0913797
0.116847
0.135835
0.150188
0.157458
-0.0523048
-0.0362306
0.00630284
0.052404
0.092169
0.122813
0.145293
0.16167
0.172709
0.174855
-0.00605733
0.00848634
0.0485793
0.0914875
0.127632
0.154796
0.174221
0.187835
0.195156
0.192915
0.0417288
0.0545348
0.0918835
0.131255
0.16357
0.187127
0.203387
0.213944
0.217531
0.216379
0.0906484
0.101517
0.135869
0.171425
0.199742
0.219586
0.232527
0.239824
0.240445
0.239971
0.140274
0.149045
0.180177
0.211704
0.235897
0.25195
0.261473
0.265537
0.263615
0.262282
0.190176
0.19672
0.22445
0.251793
0.271783
0.283994
0.29005
0.290951
0.286623
0.283681
0.23992
0.244144
0.268329
0.291394
0.307146
0.315502
0.318091
0.315895
0.309152
0.30418
0.289075
0.290916
0.311463
0.330208
0.341733
0.346259
0.345419
0.340193
0.331027
0.32383
0.337214
0.336641
0.353507
0.367946
0.375298
0.376059
0.371857
0.363677
0.352103
0.342597
0.383918
0.380933
0.394126
0.404324
0.4076
0.404695
0.397229
0.38619
0.372259
0.360426
0.428782
0.423419
0.432997
0.439068
0.438407
0.431973
0.421368
0.407586
0.391377
0.377245
0.471417
0.463742
0.469812
0.47192
0.4675
0.457702
0.444112
0.427728
0.409347
0.392975
0.511456
0.501564
0.504281
0.502631
0.494668
0.481706
0.46531
0.446485
0.426061
0.407541
0.548554
0.53657
0.536133
0.530974
0.519717
0.503818
0.48482
0.463738
0.441417
0.42087
0.582392
0.56847
0.565118
0.556737
0.542467
0.523884
0.502511
0.479373
0.455321
0.432892
0.612678
0.596998
0.591008
0.579728
0.562755
0.541766
0.518265
0.493289
0.467685
0.443545
0.639154
0.621918
0.613602
0.599775
0.580434
0.557339
0.531977
0.505396
0.478433
0.452777
0.661592
0.643025
0.632723
0.616729
0.595379
0.570497
0.543555
0.515615
0.487498
0.460542
0.679799
0.660144
0.648221
0.630465
0.607482
0.581149
0.552924
0.52388
0.494823
0.466798
0.69362
0.673132
0.659974
0.640878
0.616656
0.58922
0.56002
0.530138
0.500364
0.471514
0.702934
0.681882
0.66789
0.647889
0.622832
0.594653
0.564797
0.534349
0.504091
0.474684
0.707659
0.686319
0.671904
0.651445
0.625964
0.597409
0.56722
0.536487
0.505991
0.476322
0.707753
0.686406
0.671983
0.651516
0.626027
0.597464
0.567267
0.536528
0.50603
0.476368
0.703214
0.682139
0.668124
0.648099
0.623016
0.594813
0.564932
0.534463
0.504189
0.47477
0.694077
0.673552
0.660356
0.641217
0.616952
0.589473
0.560232
0.53031
0.500501
0.471618
0.680421
0.660714
0.648739
0.630922
0.607878
0.581483
0.553198
0.524099
0.494991
0.466917
0.66236
0.643731
0.633362
0.61729
0.59586
0.570899
0.543881
0.515871
0.487691
0.460677
0.640049
0.622742
0.614347
0.600425
0.580987
0.557797
0.532344
0.505683
0.47865
0.452932
0.61368
0.597923
0.591842
0.580452
0.563367
0.54227
0.518669
0.493606
0.467927
0.443721
0.58348
0.569478
0.566026
0.557523
0.54313
0.524429
0.502949
0.479719
0.45559
0.433092
0.549711
0.537645
0.537101
0.531812
0.520423
0.504399
0.48529
0.464113
0.441715
0.421097
0.512663
0.50269
0.505298
0.503511
0.49541
0.482321
0.465812
0.446893
0.426391
0.407797
0.47266
0.464907
0.470866
0.472834
0.468275
0.458349
0.444646
0.428168
0.40971
0.393261
0.430048
0.424613
0.434081
0.440013
0.439212
0.43265
0.421935
0.408061
0.391774
0.377562
0.385198
0.382147
0.395233
0.405295
0.408433
0.405404
0.397829
0.3867
0.372691
0.360774
0.338502
0.33787
0.354633
0.36894
0.376158
0.376798
0.372491
0.364224
0.352571
0.342976
0.290367
0.292155
0.312605
0.331224
0.342621
0.347031
0.346089
0.340777
0.331532
0.324238
0.241213
0.245391
0.269486
0.292431
0.308061
0.316305
0.318796
0.316516
0.309697
0.304619
0.191469
0.197974
0.22562
0.252851
0.272726
0.28483
0.290791
0.291611
0.287212
0.284152
0.141569
0.150306
0.181362
0.212783
0.236868
0.252819
0.26225
0.266236
0.264254
0.262801
0.0919469
0.102788
0.137069
0.172527
0.200741
0.220489
0.233341
0.240562
0.24114
0.24057
0.0430344
0.0558169
0.0931006
0.132381
0.164599
0.188065
0.204239
0.214717
0.218279
0.217128
-0.00474094
0.00978292
0.0498155
0.0926376
0.128691
0.155769
0.175114
0.188651
0.195951
0.193839
-0.0509735
-0.0349162
0.00756042
0.0535802
0.0932586
0.123821
0.146225
0.162528
0.173532
0.175766
-0.095401
-0.0778396
-0.0333613
0.015478
0.0585365
0.0924207
0.117814
0.136729
0.151026
0.15831
-0.137543
-0.118726
-0.0727754
-0.021406
0.0247514
0.0617461
0.0900268
0.111447
0.128405
0.139546
-0.177017
-0.156676
-0.110826
-0.056799
-0.00788926
0.0319569
0.0629555
0.0867544
0.105933
0.119918
-0.213625
-0.192082
-0.146385
-0.0904436
-0.0391991
0.00321218
0.0367037
0.062725
0.0838844
0.100247
-0.247153
-0.224708
-0.179001
-0.122283
-0.0689826
-0.0243292
0.0113954
0.0394528
0.0624087
0.0809088
-0.277376
-0.254267
-0.208943
-0.151845
-0.0970702
-0.0505227
-0.0128442
0.017038
0.0415883
0.0620076
-0.304128
-0.280554
-0.236105
-0.179025
-0.123291
-0.075237
-0.0359029
-0.00442418
0.0214951
0.0436259
-0.327307
-0.303431
-0.260285
-0.203751
-0.147531
-0.0983796
-0.0576853
-0.0248441
0.00219774
0.0258681
-0.346863
-0.322829
-0.28135
-0.225918
-0.169702
-0.119878
-0.0781273
-0.0441376
-0.0162307
0.00880593
-0.362801
-0.338737
-0.299238
-0.245436
-0.189726
-0.139635
-0.0972001
-0.0622708
-0.0336736
-0.00759139
-0.37518
-0.3512
-0.313937
-0.262252
-0.207547
-0.157592
-0.114808
-0.0792305
-0.0499559
-0.0235443
-0.384114
-0.360321
-0.325486
-0.276349
-0.223138
-0.173724
-0.130911
-0.0949645
-0.0652618
-0.0390389
-0.389769
-0.366257
-0.33397
-0.287748
-0.236492
-0.188026
-0.145506
-0.109456
-0.0795027
-0.0532445
-0.392361
-0.369217
-0.339522
-0.296503
-0.24763
-0.200507
-0.158594
-0.122685
-0.0926135
-0.0661799
-0.392146
-0.36946
-0.34232
-0.302709
-0.256599
-0.211193
-0.170189
-0.134654
-0.104634
-0.0781059
-0.389414
-0.367277
-0.342589
-0.306496
-0.263468
-0.220129
-0.180327
-0.145397
-0.115624
-0.0891845
-0.384483
-0.36299
-0.340597
-0.308034
-0.268334
-0.227377
-0.189056
-0.154958
-0.125623
-0.0994642
-0.377688
-0.356933
-0.336644
-0.307525
-0.271319
-0.233017
-0.196438
-0.163391
-0.134665
-0.108955
-0.36937
-0.349448
-0.331053
-0.305205
-0.272565
-0.237139
-0.202543
-0.170749
-0.142785
-0.117674
-0.359867
-0.340868
-0.324161
-0.301334
-0.272237
-0.239848
-0.207443
-0.177093
-0.150032
-0.125652
-0.349504
-0.331512
-0.3163
-0.296192
-0.270522
-0.24126
-0.211221
-0.182489
-0.156459
-0.132926
-0.338587
-0.321677
-0.307788
-0.290071
-0.267621
-0.241502
-0.213961
-0.187002
-0.162122
-0.139532
-0.327391
-0.311628
-0.298915
-0.283264
-0.263752
-0.240711
-0.215753
-0.190703
-0.16708
-0.145514
-0.31616
-0.301594
-0.289936
-0.276051
-0.259144
-0.239036
-0.21669
-0.193657
-0.17139
-0.150915
-0.3051
-0.291766
-0.281066
-0.268685
-0.254026
-0.236634
-0.21687
-0.195933
-0.175108
-0.155785
-0.29438
-0.282296
-0.272475
-0.261381
-0.248625
-0.233671
-0.216394
-0.197595
-0.178287
-0.160172
-0.284131
-0.273296
-0.264296
-0.254313
-0.243148
-0.230316
-0.21537
-0.198708
-0.180974
-0.164125
-0.274451
-0.264845
-0.256622
-0.247605
-0.23777
-0.22674
-0.213911
-0.199339
-0.183211
-0.167694
-0.265405
-0.256987
-0.249509
-0.241346
-0.23263
-0.223103
-0.212137
-0.199558
-0.185033
-0.17093
-0.257032
-0.249743
-0.242984
-0.235587
-0.227823
-0.219543
-0.21017
-0.199441
-0.186469
-0.173887
-0.249347
-0.243115
-0.237049
-0.230353
-0.223407
-0.216168
-0.208127
-0.199072
-0.187538
-0.176625
-0.242345
-0.237085
-0.231685
-0.225644
-0.219411
-0.213049
-0.206111
-0.19854
-0.188254
-0.179215
-0.236008
-0.231628
-0.226863
-0.221439
-0.215843
-0.210229
-0.204201
-0.197936
-0.188627
-0.181738
-0.230303
-0.226709
-0.222542
-0.217705
-0.212692
-0.207724
-0.202447
-0.197338
-0.188666
-0.184272
-0.225187
-0.222285
-0.218679
-0.214401
-0.209931
-0.205533
-0.200872
-0.196796
-0.188395
-0.186888
-0.220613
-0.218312
-0.215224
-0.211478
-0.207522
-0.203634
-0.199486
-0.196328
-0.187893
-0.189482
-0.216526
-0.214744
-0.212131
-0.208884
-0.205416
-0.201991
-0.198293
-0.195885
-0.187294
-0.19213
-0.21287
-0.211533
-0.209351
-0.206571
-0.203562
-0.200559
-0.197281
-0.195306
-0.186973
-0.192889
-0.209583
-0.208636
-0.206838
-0.204489
-0.201906
-0.199291
-0.196407
-0.194495
-0.187378
-0.181555
-0.206624
-0.206007
-0.204549
-0.202595
-0.200402
-0.198145
-0.195624
-0.193584
-0.188352
-0.177202
-0.20394
-0.203611
-0.202445
-0.200851
-0.199013
-0.197082
-0.194895
-0.192771
-0.189251
-0.177203
-0.201486
-0.201393
-0.200515
-0.199229
-0.197711
-0.196076
-0.194191
-0.192102
-0.189694
-0.178226
-0.199227
-0.199346
-0.198716
-0.197708
-0.196476
-0.195111
-0.193498
-0.191546
-0.18978
-0.179525
-0.197133
-0.197446
-0.197031
-0.196272
-0.195298
-0.194178
-0.192817
-0.191069
-0.1897
-0.180995
-0.195181
-0.195674
-0.195449
-0.194912
-0.194169
-0.193276
-0.192156
-0.19064
-0.189572
-0.182459
-0.193357
-0.194017
-0.193961
-0.193622
-0.193088
-0.192406
-0.191518
-0.190221
-0.189465
-0.183756
-0.191649
-0.192468
-0.192564
-0.1924
-0.192055
-0.191567
-0.190882
-0.189812
-0.189406
-0.184783
-0.190053
-0.191024
-0.191256
-0.191249
-0.191073
-0.190762
-0.190274
-0.189522
-0.189231
-0.185568
-0.188568
-0.189686
-0.190039
-0.190171
-0.190147
-0.189995
-0.189688
-0.189195
-0.188876
-0.186368
-0.187199
-0.188455
-0.188917
-0.189172
-0.189283
-0.189273
-0.18913
-0.188847
-0.188585
-0.186983
-0.185951
-0.187339
-0.187898
-0.18826
-0.188488
-0.188604
-0.188605
-0.188497
-0.188338
-0.187346
-0.184834
-0.186344
-0.186988
-0.187443
-0.187772
-0.187997
-0.188122
-0.188158
-0.188112
-0.187544
-0.183859
-0.18548
-0.186197
-0.186731
-0.187145
-0.187462
-0.187692
-0.187846
-0.18791
-0.187645
-0.183037
-0.184754
-0.185533
-0.186133
-0.186618
-0.187011
-0.187327
-0.187575
-0.18774
-0.187695
-0.182379
-0.184177
-0.185006
-0.185659
-0.1862
-0.186654
-0.187039
-0.187362
-0.187611
-0.187727
-0.181894
-0.183756
-0.184623
-0.185316
-0.1859
-0.1864
-0.186838
-0.187219
-0.187535
-0.187767
-0.181591
-0.183496
-0.18439
-0.18511
-0.185724
-0.186258
-0.186733
-0.187156
-0.187523
-0.187834
-0.181476
-0.183404
-0.184312
-0.185047
-0.185678
-0.186232
-0.186731
-0.187181
-0.18758
-0.187939
-0.188528
-0.188834
-0.189142
-0.189446
-0.189741
-0.190023
-0.190286
-0.19052
-0.190715
-0.19086
-0.190944
-0.190952
-0.190873
-0.190692
-0.190395
-0.189972
-0.189404
-0.188672
-0.187754
-0.186625
-0.185256
-0.183617
-0.181673
-0.179355
-0.176611
-0.173376
-0.169578
-0.165163
-0.160046
-0.154206
-0.147502
-0.139989
-0.131356
-0.121815
-0.110792
-0.0987427
-0.0851941
-0.069966
-0.0553114
-0.0355915
-0.0251185
0.00246486
-0.188767
-0.189065
-0.189373
-0.189678
-0.189972
-0.190251
-0.190506
-0.190726
-0.190898
-0.191009
-0.191044
-0.190989
-0.190828
-0.190543
-0.19012
-0.189551
-0.188818
-0.187903
-0.186791
-0.185465
-0.183906
-0.182093
-0.180041
-0.177666
-0.17494
-0.171815
-0.168235
-0.164151
-0.159478
-0.154178
-0.148085
-0.141208
-0.133182
-0.124155
-0.113475
-0.101567
-0.0878881
-0.0723188
-0.0569585
-0.0365219
-0.0251559
0.00326608
-0.189082
-0.189356
-0.189658
-0.189962
-0.190254
-0.190529
-0.190775
-0.19098
-0.19113
-0.191207
-0.191195
-0.191076
-0.190834
-0.190447
-0.189897
-0.189186
-0.188289
-0.187194
-0.185891
-0.184367
-0.182619
-0.180634
-0.178485
-0.176055
-0.173347
-0.170334
-0.166971
-0.163217
-0.158984
-0.154221
-0.14873
-0.142482
-0.135049
-0.126524
-0.116164
-0.104375
-0.0905663
-0.0746596
-0.0586022
-0.03749
-0.0252809
0.00377586
-0.189463
-0.1897
-0.189989
-0.190291
-0.190579
-0.190849
-0.191088
-0.191279
-0.191406
-0.191451
-0.191394
-0.191213
-0.19089
-0.190403
-0.189729
-0.18888
-0.187822
-0.186551
-0.18506
-0.183342
-0.181406
-0.179324
-0.17702
-0.174533
-0.171844
-0.168942
-0.165795
-0.162367
-0.158566
-0.15433
-0.149427
-0.143792
-0.136933
-0.128891
-0.118826
-0.10717
-0.0931965
-0.0769569
-0.0602197
-0.0384739
-0.025497
0.00397453
-0.189898
-0.190083
-0.190356
-0.190654
-0.190938
-0.191205
-0.191436
-0.191615
-0.191723
-0.191737
-0.191636
-0.191399
-0.190999
-0.190409
-0.189606
-0.188633
-0.187422
-0.185978
-0.184304
-0.182394
-0.180256
-0.178055
-0.175649
-0.173109
-0.17044
-0.167647
-0.16471
-0.1616
-0.15822
-0.154497
-0.150164
-0.145122
-0.138812
-0.131231
-0.121424
-0.10989
-0.0957478
-0.0791827
-0.0618001
-0.0394449
-0.0256934
0.00399653
-0.190373
-0.190491
-0.190745
-0.191041
-0.191321
-0.191584
-0.191811
-0.19198
-0.192069
-0.192056
-0.191916
-0.191624
-0.191156
-0.190484
-0.189518
-0.188441
-0.187085
-0.185478
-0.183629
-0.181527
-0.179155
-0.176887
-0.174381
-0.171788
-0.169138
-0.166451
-0.163718
-0.160915
-0.157942
-0.154712
-0.150926
-0.146452
-0.140663
-0.133514
-0.123921
-0.11252
-0.0981949
-0.0813121
-0.0633324
-0.040416
-0.0259033
0.00395251
-0.190878
-0.190909
-0.191143
-0.191437
-0.191714
-0.191976
-0.1922
-0.192361
-0.192437
-0.1924
-0.192225
-0.191883
-0.191349
-0.190603
-0.189672
-0.188306
-0.186804
-0.185046
-0.183032
-0.180746
-0.178407
-0.175834
-0.17322
-0.170575
-0.167942
-0.165357
-0.162818
-0.16031
-0.157723
-0.154966
-0.151697
-0.147763
-0.142462
-0.135719
-0.126296
-0.115033
-0.100512
-0.083324
-0.064745
-0.0414037
-0.0261552
0.00384007
-0.191407
-0.191317
-0.191532
-0.191828
-0.192104
-0.192367
-0.19259
-0.192747
-0.192812
-0.192756
-0.192551
-0.192166
-0.191574
-0.190751
-0.189693
-0.188333
-0.186574
-0.184666
-0.182504
-0.179998
-0.177548
-0.17488
-0.172166
-0.16947
-0.166852
-0.164363
-0.162006
-0.159777
-0.157556
-0.155245
-0.152463
-0.149035
-0.144189
-0.137825
-0.128795
-0.11741
-0.102674
-0.0852068
-0.0660819
-0.042332
-0.026445
0.00364721
-0.191988
-0.191699
-0.191898
-0.192201
-0.192477
-0.192742
-0.192967
-0.193123
-0.193181
-0.193112
-0.192882
-0.192462
-0.191819
-0.190928
-0.189772
-0.188309
-0.186551
-0.184336
-0.182022
-0.179277
-0.176824
-0.174031
-0.17122
-0.168474
-0.165867
-0.163466
-0.161279
-0.159311
-0.157431
-0.155538
-0.153209
-0.150253
-0.145824
-0.139794
-0.130917
-0.119602
-0.104691
-0.0869451
-0.0673322
-0.0431991
-0.026757
0.00337493
-0.192672
-0.192037
-0.192227
-0.192544
-0.192817
-0.193086
-0.193316
-0.193475
-0.193531
-0.193452
-0.193205
-0.192756
-0.192072
-0.191123
-0.189889
-0.188334
-0.186462
-0.184281
-0.181648
-0.179128
-0.176226
-0.173287
-0.17038
-0.167585
-0.164982
-0.162662
-0.160631
-0.158902
-0.157338
-0.155832
-0.153921
-0.151402
-0.147343
-0.141579
-0.132892
-0.121627
-0.106536
-0.0885293
-0.0684834
-0.0440086
-0.0270794
0.00302944
-0.193214
-0.192393
-0.192517
-0.192847
-0.193111
-0.193383
-0.193621
-0.193785
-0.193844
-0.193762
-0.193505
-0.193036
-0.192319
-0.191322
-0.190024
-0.188393
-0.186426
-0.184131
-0.181508
-0.178733
-0.175716
-0.172643
-0.169644
-0.166799
-0.164197
-0.161947
-0.160055
-0.158545
-0.157267
-0.156115
-0.154583
-0.152456
-0.148746
-0.14325
-0.134693
-0.123466
-0.108204
-0.089956
-0.0695324
-0.0447583
-0.0274031
0.00261811
-0.193552
-0.192808
-0.192755
-0.193076
-0.193359
-0.193629
-0.193871
-0.194042
-0.194105
-0.194026
-0.193766
-0.193285
-0.192547
-0.191511
-0.190164
-0.188469
-0.186423
-0.184037
-0.18134
-0.178428
-0.175297
-0.172091
-0.169003
-0.166108
-0.163509
-0.16132
-0.159546
-0.158229
-0.157209
-0.156374
-0.155186
-0.153414
-0.149995
-0.144759
-0.136309
-0.125108
-0.109695
-0.0912235
-0.0704784
-0.0454465
-0.0277201
0.00214883
-0.193925
-0.193203
-0.192937
-0.193251
-0.193538
-0.193799
-0.194045
-0.194224
-0.194297
-0.194226
-0.193969
-0.193487
-0.192737
-0.191682
-0.190296
-0.18855
-0.186441
-0.183981
-0.181207
-0.178227
-0.174976
-0.171634
-0.168463
-0.165522
-0.162906
-0.160758
-0.159091
-0.157946
-0.157154
-0.156601
-0.155718
-0.154261
-0.151071
-0.146096
-0.137738
-0.126551
-0.111008
-0.0923318
-0.0713218
-0.0460738
-0.0280236
0.00162972
-0.19432
-0.193586
-0.193068
-0.193362
-0.193638
-0.193883
-0.194129
-0.194318
-0.194402
-0.194344
-0.1941
-0.193624
-0.192875
-0.191811
-0.190402
-0.188622
-0.186465
-0.183944
-0.181105
-0.178142
-0.174674
-0.171248
-0.168007
-0.165019
-0.162391
-0.16027
-0.15869
-0.157689
-0.157095
-0.156788
-0.15617
-0.154985
-0.152024
-0.147251
-0.138973
-0.12779
-0.112141
-0.0932823
-0.0720633
-0.0466417
-0.0283077
0.00106875
-0.194719
-0.193969
-0.19315
-0.193403
-0.19365
-0.193865
-0.194107
-0.194304
-0.194403
-0.194363
-0.194137
-0.193679
-0.192942
-0.191882
-0.190466
-0.188669
-0.18648
-0.183913
-0.181012
-0.178001
-0.174691
-0.170886
-0.16763
-0.1646
-0.161953
-0.159848
-0.158335
-0.157451
-0.157023
-0.156926
-0.156533
-0.155574
-0.152803
-0.148216
-0.14001
-0.128825
-0.113097
-0.0940768
-0.0727032
-0.0471518
-0.0285672
0.000473598
-0.195118
-0.194331
-0.193171
-0.193362
-0.193553
-0.193723
-0.193957
-0.194162
-0.194278
-0.194262
-0.194064
-0.193633
-0.192919
-0.191877
-0.190471
-0.188672
-0.18647
-0.183874
-0.180911
-0.17769
-0.174334
-0.171063
-0.167341
-0.164259
-0.161584
-0.159483
-0.158018
-0.157225
-0.156932
-0.157008
-0.156801
-0.156034
-0.15344
-0.148989
-0.140847
-0.129655
-0.113874
-0.0947168
-0.073241
-0.0476048
-0.0287975
-0.000148278
-0.195463
-0.194566
-0.193088
-0.193218
-0.193326
-0.193439
-0.193664
-0.19388
-0.194017
-0.19403
-0.193866
-0.19347
-0.192791
-0.19178
-0.190397
-0.188614
-0.186417
-0.183814
-0.180826
-0.177516
-0.174112
-0.170662
-0.167287
-0.163995
-0.161277
-0.159165
-0.157732
-0.157003
-0.156814
-0.157027
-0.156967
-0.156376
-0.153915
-0.149567
-0.141483
-0.130281
-0.114478
-0.0952081
-0.0736819
-0.0480042
-0.0289995
-0.000790183
-0.195682
-0.194554
-0.192873
-0.192967
-0.192956
-0.193002
-0.193217
-0.193444
-0.193606
-0.193653
-0.193531
-0.193181
-0.192548
-0.191581
-0.190238
-0.188487
-0.186312
-0.183718
-0.180728
-0.177383
-0.173943
-0.170411
-0.166986
-0.163791
-0.161018
-0.15888
-0.157468
-0.156772
-0.156657
-0.156971
-0.15702
-0.156553
-0.154215
-0.14995
-0.141928
-0.13072
-0.11493
-0.0955732
-0.0740485
-0.0483628
-0.0291839
-0.0014489
-0.196555
-0.194251
-0.192469
-0.192516
-0.192341
-0.19231
-0.192517
-0.192762
-0.192958
-0.193051
-0.192985
-0.192698
-0.192132
-0.191233
-0.189957
-0.188268
-0.186148
-0.183597
-0.180628
-0.177222
-0.173784
-0.170225
-0.166744
-0.163571
-0.160783
-0.158615
-0.157212
-0.156517
-0.156455
-0.156834
-0.156957
-0.156581
-0.154341
-0.150145
-0.142193
-0.130987
-0.115246
-0.095826
-0.0743471
-0.0486884
-0.0293432
-0.00212666
-0.196315
-0.191852
-0.191078
-0.191376
-0.191139
-0.191129
-0.191394
-0.191707
-0.191968
-0.192128
-0.192131
-0.191917
-0.191427
-0.190605
-0.189406
-0.187795
-0.185753
-0.183283
-0.180405
-0.176863
-0.173589
-0.170026
-0.166552
-0.163328
-0.1606
-0.158451
-0.156952
-0.156247
-0.156248
-0.156664
-0.156842
-0.156511
-0.154323
-0.150141
-0.142228
-0.130985
-0.115289
-0.0958295
-0.0744137
-0.048899
-0.0293647
-0.00281763
-0.180998
-0.183143
-0.18802
-0.189654
-0.189711
-0.189834
-0.190203
-0.190607
-0.190939
-0.191156
-0.191213
-0.19105
-0.190608
-0.18983
-0.188669
-0.18709
-0.185076
-0.182632
-0.179798
-0.176637
-0.173076
-0.169372
-0.165899
-0.162712
-0.159978
-0.157944
-0.156581
-0.156066
-0.156018
-0.156481
-0.156703
-0.156358
-0.154157
-0.149859
-0.141891
-0.130493
-0.114804
-0.0953347
-0.0740114
-0.0489227
-0.0291196
-0.00371112
-0.180214
-0.180495
-0.184964
-0.186777
-0.18687
-0.186982
-0.187437
-0.187976
-0.188422
-0.188726
-0.188853
-0.188754
-0.188369
-0.187645
-0.186535
-0.185009
-0.183049
-0.180658
-0.17786
-0.174672
-0.171175
-0.167901
-0.164635
-0.161622
-0.159044
-0.157124
-0.155862
-0.155382
-0.155376
-0.155789
-0.15591
-0.155393
-0.153029
-0.148499
-0.140432
-0.128894
-0.113335
-0.0940226
-0.0730302
-0.0486189
-0.0287259
-0.00468175
-0.177331
-0.177335
-0.180285
-0.182019
-0.182486
-0.182836
-0.183458
-0.184166
-0.18477
-0.185205
-0.185448
-0.185458
-0.185181
-0.184566
-0.183571
-0.182168
-0.180342
-0.1781
-0.175468
-0.172499
-0.169317
-0.166186
-0.163089
-0.160268
-0.157866
-0.156068
-0.15489
-0.154418
-0.154375
-0.154656
-0.154588
-0.153808
-0.151204
-0.146397
-0.138221
-0.126598
-0.11124
-0.0922353
-0.0716873
-0.048105
-0.0282645
-0.00553729
-0.171967
-0.172736
-0.174345
-0.175695
-0.176543
-0.177294
-0.178172
-0.179083
-0.179882
-0.180502
-0.180919
-0.181099
-0.180993
-0.180553
-0.179741
-0.178532
-0.176914
-0.174897
-0.172509
-0.169817
-0.166925
-0.164015
-0.161167
-0.158564
-0.156343
-0.154668
-0.15355
-0.15305
-0.152908
-0.152993
-0.152673
-0.151572
-0.14869
-0.1436
-0.13533
-0.123697
-0.108609
-0.0900581
-0.0700432
-0.0474203
-0.0277478
-0.0062706
-0.164121
-0.166265
-0.167306
-0.168244
-0.169308
-0.17046
-0.171645
-0.172783
-0.173792
-0.174626
-0.175255
-0.175648
-0.175759
-0.175546
-0.174972
-0.174015
-0.172666
-0.170936
-0.168852
-0.166481
-0.163912
-0.161293
-0.158726
-0.15637
-0.154343
-0.152786
-0.151703
-0.15114
-0.150854
-0.150692
-0.150074
-0.148617
-0.145437
-0.140082
-0.131753
-0.120203
-0.105465
-0.0875087
-0.0681199
-0.0465553
-0.0271768
-0.00686554
-0.154469
-0.158072
-0.159192
-0.159939
-0.16113
-0.16262
-0.164125
-0.165508
-0.166731
-0.167778
-0.168629
-0.16925
-0.169599
-0.169636
-0.16933
-0.16866
-0.167618
-0.166214
-0.164474
-0.16246
-0.160246
-0.157959
-0.155695
-0.1536
-0.151768
-0.150326
-0.149258
-0.148602
-0.148135
-0.147692
-0.146748
-0.144925
-0.141453
-0.135876
-0.127536
-0.116171
-0.101865
-0.0846285
-0.0659552
-0.0455109
-0.0265535
-0.00731534
-0.144028
-0.148694
-0.150224
-0.151055
-0.152384
-0.154142
-0.15594
-0.157572
-0.159006
-0.160257
-0.161319
-0.162162
-0.162745
-0.163034
-0.162999
-0.162623
-0.161898
-0.160833
-0.159451
-0.157803
-0.155956
-0.154011
-0.152058
-0.15022
-0.148575
-0.147231
-0.146175
-0.145407
-0.144738
-0.144
-0.142727
-0.140552
-0.136813
-0.131074
-0.122784
-0.111701
-0.0979046
-0.0814806
-0.0635994
-0.0442997
-0.0258794
-0.00762211
-0.133366
-0.138687
-0.140733
-0.141843
-0.14336
-0.145338
-0.147387
-0.149253
-0.150892
-0.152336
-0.153594
-0.154644
-0.155448
-0.155976
-0.156199
-0.156106
-0.155686
-0.15495
-0.153914
-0.152622
-0.151128
-0.149516
-0.147861
-0.146268
-0.144799
-0.143543
-0.142483
-0.141597
-0.140723
-0.139697
-0.138107
-0.135617
-0.131651
-0.125816
-0.117637
-0.106917
-0.0936924
-0.0781387
-0.0611063
-0.0429419
-0.0251553
-0.0077949
-0.122819
-0.128503
-0.131031
-0.132501
-0.134249
-0.136422
-0.13868
-0.140758
-0.142595
-0.144223
-0.145664
-0.146904
-0.147914
-0.148662
-0.149126
-0.149294
-0.149158
-0.148727
-0.148012
-0.14705
-0.145883
-0.144581
-0.143202
-0.141834
-0.140524
-0.139342
-0.138266
-0.13727
-0.136201
-0.134909
-0.133034
-0.130274
-0.126131
-0.120264
-0.11225
-0.101951
-0.0893405
-0.0746786
-0.0585281
-0.0414634
-0.0243824
-0.00784827
-0.112602
-0.118431
-0.121349
-0.123181
-0.125174
-0.127529
-0.129964
-0.13223
-0.134252
-0.136056
-0.137669
-0.139087
-0.140285
-0.141237
-0.141922
-0.14233
-0.142453
-0.142299
-0.141876
-0.141213
-0.140342
-0.139319
-0.13819
-0.137024
-0.135855
-0.134737
-0.133645
-0.132549
-0.131308
-0.129784
-0.127663
-0.124688
-0.120418
-0.114575
-0.10677
-0.0969242
-0.0849488
-0.0711693
-0.0559101
-0.0398923
-0.0235635
-0.00780027
-0.102796
-0.108631
-0.111839
-0.113994
-0.116221
-0.118743
-0.121332
-0.123762
-0.125952
-0.127921
-0.129696
-0.131281
-0.132654
-0.133794
-0.134681
-0.135308
-0.135667
-0.135763
-0.135603
-0.135208
-0.134602
-0.13383
-0.132924
-0.131939
-0.130897
-0.129838
-0.128733
-0.127556
-0.12617
-0.124455
-0.122135
-0.118997
-0.114651
-0.108876
-0.101312
-0.0919327
-0.080595
-0.0676669
-0.0532884
-0.038256
-0.0227037
-0.00766994
-0.0934318
-0.0991897
-0.102602
-0.105022
-0.107455
-0.110124
-0.112845
-0.115414
-0.117754
-0.119874
-0.1218
-0.123539
-0.125074
-0.126387
-0.127461
-0.128287
-0.12886
-0.129183
-0.129258
-0.129104
-0.128735
-0.128187
-0.127481
-0.12666
-0.125735
-0.124734
-0.123618
-0.122389
-0.120889
-0.119026
-0.116555
-0.113306
-0.10893
-0.10326
-0.0959587
-0.0870437
-0.0763323
-0.064212
-0.0506888
-0.036579
-0.0218097
-0.00747555
-0.0845336
-0.0901573
-0.0936988
-0.0963243
-0.0989261
-0.101717
-0.104545
-0.10723
-0.109699
-0.111953
-0.114017
-0.115895
-0.117578
-0.11905
-0.120294
-0.121302
-0.122069
-0.122596
-0.122884
-0.122945
-0.12279
-0.122443
-0.121918
-0.121247
-0.120432
-0.119494
-0.118394
-0.117119
-0.115538
-0.113569
-0.110995
-0.107681
-0.103317