/*--------------------------------*- C++ -*----------------------------------*\
  =========                 |
  \\      /  F ield         | OpenFOAM: The Open Source CFD Toolbox
   \\    /   O peration     | Website:  https://openfoam.org
    \\  /    A nd           | Version:  7
     \\/     M anipulation  |
\*---------------------------------------------------------------------------*/
FoamFile
{
    version     2.0;
    format      ascii;
    class       volScalarField;
    location    "40";
    object      p;
}
// * * * * * * * * * * * * * * * * * * * * * * * * * * * * * * * * * * * * * //

dimensions      [0 2 -2 0 0 0 0];

internalField   nonuniform List<scalar> 
6386
(
-0.201113
-0.203418
-0.205905
-0.208611
-0.207941
-0.211585
-0.210586
-0.214875
-0.213493
-0.211296
-0.218532
-0.216709
-0.214079
-0.210833
-0.222617
-0.22028
-0.217173
-0.213423
-0.227189
-0.224253
-0.220628
-0.216345
-0.211893
-0.232302
-0.228679
-0.224494
-0.219649
-0.21465
-0.209727
-0.238006
-0.233601
-0.228819
-0.223386
-0.2178
-0.21222
-0.206251
-0.244344
-0.239062
-0.233646
-0.227595
-0.221368
-0.215031
-0.208134
-0.200607
-0.251349
-0.245097
-0.239016
-0.232311
-0.225365
-0.218141
-0.210123
-0.201087
-0.189548
-0.259038
-0.251731
-0.244959
-0.237551
-0.229782
-0.221506
-0.212137
-0.201404
-0.188404
-0.17577
-0.267416
-0.258981
-0.251491
-0.243316
-0.23459
-0.225054
-0.214074
-0.20147
-0.186897
-0.172727
-0.276467
-0.266845
-0.258611
-0.24958
-0.239728
-0.228676
-0.215816
-0.2012
-0.185008
-0.169413
-0.286152
-0.275302
-0.266291
-0.25629
-0.2451
-0.232233
-0.21724
-0.200518
-0.182709
-0.165772
-0.296405
-0.284306
-0.274473
-0.263358
-0.250568
-0.235565
-0.218227
-0.199356
-0.179963
-0.161754
-0.307127
-0.293778
-0.283064
-0.270657
-0.255956
-0.238503
-0.218666
-0.197646
-0.17673
-0.157307
-0.318186
-0.303606
-0.291933
-0.278016
-0.261055
-0.240876
-0.218447
-0.195325
-0.172962
-0.152383
-0.329413
-0.313637
-0.300906
-0.285217
-0.265642
-0.24252
-0.217471
-0.192326
-0.168604
-0.146931
-0.340602
-0.32368
-0.30977
-0.292007
-0.269485
-0.243278
-0.215641
-0.188583
-0.163601
-0.140903
-0.351508
-0.333505
-0.318268
-0.298107
-0.272357
-0.243001
-0.212862
-0.184027
-0.157895
-0.134253
-0.361856
-0.342847
-0.326111
-0.303224
-0.274041
-0.241553
-0.209046
-0.178592
-0.151427
-0.12694
-0.371341
-0.351409
-0.332982
-0.307067
-0.274334
-0.238807
-0.204107
-0.172208
-0.144142
-0.118924
-0.379637
-0.358873
-0.338546
-0.309355
-0.273053
-0.234647
-0.197964
-0.164812
-0.135984
-0.110169
-0.386406
-0.364904
-0.342469
-0.309829
-0.270031
-0.22897
-0.190544
-0.156343
-0.126908
-0.100645
-0.391307
-0.369162
-0.344428
-0.308254
-0.265126
-0.221684
-0.181778
-0.146746
-0.116874
-0.090333
-0.394006
-0.371311
-0.344122
-0.304427
-0.258218
-0.21271
-0.171604
-0.135969
-0.105851
-0.0792242
-0.394186
-0.371033
-0.341285
-0.298182
-0.249211
-0.201986
-0.159972
-0.123965
-0.0937995
-0.0672692
-0.391555
-0.368034
-0.335693
-0.289386
-0.238033
-0.189468
-0.146849
-0.110703
-0.0806582
-0.0543035
-0.38586
-0.362058
-0.327167
-0.277946
-0.224639
-0.175129
-0.13222
-0.096179
-0.0663859
-0.0400629
-0.376884
-0.352895
-0.315576
-0.263808
-0.209011
-0.15896
-0.116082
-0.0804127
-0.0510477
-0.02453
-0.364463
-0.34039
-0.300834
-0.246952
-0.191151
-0.140968
-0.0984407
-0.0634213
-0.0347327
-0.00855747
-0.348484
-0.32444
-0.282906
-0.227394
-0.17109
-0.121176
-0.0793352
-0.0452581
-0.0172602
0.0078613
-0.328886
-0.305
-0.2618
-0.205188
-0.148882
-0.0996431
-0.0588622
-0.0259346
0.00119581
0.0249465
-0.305667
-0.282082
-0.23758
-0.180424
-0.124607
-0.0764676
-0.0370488
-0.00548558
0.0205197
0.0427274
-0.278876
-0.255757
-0.210381
-0.153208
-0.0983521
-0.0517208
-0.0139599
0.0160048
0.0406387
0.0611305
-0.248617
-0.226162
-0.180404
-0.12361
-0.0702313
-0.0254954
0.0103094
0.0384473
0.0614841
0.0800504
-0.215055
-0.193502
-0.147755
-0.0917359
-0.0404142
0.0020773
0.035647
0.0617468
0.0829844
0.0994043
-0.178417
-0.158066
-0.112162
-0.0580609
-0.00907216
0.0308531
0.0619277
0.0858033
0.105056
0.119088
-0.138916
-0.120087
-0.074082
-0.0226382
0.0236
0.0606734
0.0890282
0.110523
0.12755
0.138719
-0.0967505
-0.0791759
-0.0346425
0.0142744
0.057416
0.0913797
0.116847
0.135835
0.150188
0.157458
-0.0523048
-0.0362306
0.00630284
0.052404
0.092169
0.122813
0.145293
0.16167
0.172709
0.174855
-0.00605733
0.00848634
0.0485793
0.0914875
0.127632
0.154796
0.174221
0.187835
0.195156
0.192915
0.0417288
0.0545348
0.0918835
0.131255
0.16357
0.187127
0.203387
0.213944
0.217531
0.216379
0.0906484
0.101517
0.135869
0.171425
0.199742
0.219586
0.232527
0.239824
0.240445
0.239971
0.140274
0.149045
0.180177
0.211704
0.235897
0.25195
0.261473
0.265537
0.263615
0.262282
0.190176
0.19672
0.22445
0.251793
0.271783
0.283994
0.29005
0.290951
0.286623
0.283681
0.23992
0.244144
0.268329
0.291394
0.307146
0.315502
0.318091
0.315895
0.309152
0.30418
0.289075
0.290916
0.311463
0.330208
0.341733
0.346259
0.345419
0.340193
0.331027
0.32383
0.337214
0.336641
0.353507
0.367946
0.375298
0.376059
0.371857
0.363677
0.352103
0.342597
0.383918
0.380933
0.394126
0.404324
0.4076
0.404695
0.397229
0.38619
0.372259
0.360426
0.428782
0.423419
0.432997
0.439068
0.438407
0.431973
0.421368
0.407586
0.391377
0.377245
0.471417
0.463742
0.469812
0.47192
0.4675
0.457702
0.444112
0.427728
0.409347
0.392975
0.511456
0.501564
0.504281
0.502631
0.494668
0.481706
0.46531
0.446485
0.426061
0.407541
0.548554
0.53657
0.536133
0.530974
0.519717
0.503818
0.48482
0.463738
0.441417
0.42087
0.582392
0.56847
0.565118
0.556737
0.542467
0.523884
0.502511
0.479373
0.455321
0.432892
0.612678
0.596998
0.591008
0.579728
0.562755
0.541766
0.518265
0.493289
0.467685
0.443545
0.639154
0.621918
0.613602
0.599775
0.580434
0.557339
0.531977
0.505396
0.478433
0.452777
0.661592
0.643025
0.632723
0.616729
0.595379
0.570497
0.543555
0.515615
0.487498
0.460542
0.679799
0.660144
0.648221
0.630465
0.607482
0.581149
0.552924
0.52388
0.494823
0.466798
0.69362
0.673132
0.659974
0.640878
0.616656
0.58922
0.56002
0.530138
0.500364
0.471514
0.702934
0.681882
0.66789
0.647889
0.622832
0.594653
0.564797
0.534349
0.504091
0.474684
0.707659
0.686319
0.671904
0.651445
0.625964
0.597409
0.56722
0.536487
0.505991
0.476322
0.707753
0.686406
0.671983
0.651516
0.626027
0.597464
0.567267
0.536528
0.50603
0.476368
0.703214
0.682139
0.668124
0.648099
0.623016
0.594813
0.564932
0.534463
0.504189
0.47477
0.694077
0.673552
0.660356
0.641217
0.616952
0.589473
0.560232
0.53031
0.500501
0.471618
0.680421
0.660714
0.648739
0.630922
0.607878
0.581483
0.553198
0.524099
0.494991
0.466917
0.66236
0.643731
0.633362
0.61729
0.59586
0.570899
0.543881
0.515871
0.487691
0.460677
0.640049
0.622742
0.614347
0.600425
0.580987
0.557797
0.532344
0.505683
0.47865
0.452932
0.61368
0.597923
0.591842
0.580452
0.563367
0.54227
0.518669
0.493606
0.467927
0.443721
0.58348
0.569478
0.566026
0.557523
0.54313
0.524429
0.502949
0.479719
0.45559
0.433092
0.549711
0.537645
0.537101
0.531812
0.520423
0.504399
0.48529
0.464113
0.441715
0.421097
0.512663
0.50269
0.505298
0.503511
0.49541
0.482321
0.465812
0.446893
0.426391
0.407797
0.47266
0.464907
0.470866
0.472834
0.468275
0.458349
0.444646
0.428168
0.40971
0.393261
0.430048
0.424613
0.434081
0.440013
0.439212
0.43265
0.421935
0.408061
0.391774
0.377562
0.385198
0.382147
0.395233
0.405295
0.408433
0.405404
0.397829
0.3867
0.372691
0.360774
0.338502
0.33787
0.354633
0.36894
0.376158
0.376798
0.372491
0.364224
0.352571
0.342976
0.290367
0.292155
0.312605
0.331224
0.342621
0.347031
0.346089
0.340777
0.331532
0.324238
0.241213
0.245391
0.269486
0.292431
0.308061
0.316305
0.318796
0.316516
0.309697
0.304619
0.191469
0.197974
0.22562
0.252851
0.272726
0.28483
0.290791
0.291611
0.287212
0.284152
0.141569
0.150306
0.181362
0.212783
0.236868
0.252819
0.26225
0.266236
0.264254
0.262801
0.0919469
0.102788
0.137069
0.172527
0.200741
0.220489
0.233341
0.240562
0.24114
0.24057
0.0430344
0.0558169
0.0931006
0.132381
0.164599
0.188065
0.204239
0.214717
0.218279
0.217128
-0.00474094
0.00978292
0.0498155
0.0926376
0.128691
0.155769
0.175114
0.188651
0.195951
0.193839
-0.0509735
-0.0349162
0.00756042
0.0535802
0.0932586
0.123821
0.146225
0.162528
0.173532
0.175766
-0.095401
-0.0778396
-0.0333613
0.015478
0.0585365
0.0924207
0.117814
0.136729
0.151026
0.15831
-0.137543
-0.118726
-0.0727754
-0.021406
0.0247514
0.0617461
0.0900268
0.111447
0.128405
0.139546
-0.177017
-0.156676
-0.110826
-0.056799
-0.00788926
0.0319569
0.0629555
0.0867544
0.105933
0.119918
-0.213625
-0.192082
-0.146385
-0.0904436
-0.0391991
0.00321218
0.0367037
0.062725
0.0838844
0.100247
-0.247153
-0.224708
-0.179001
-0.122283
-0.0689826
-0.0243292
0.0113954
0.0394528
0.0624087
0.0809088
-0.277376
-0.254267
-0.208943
-0.151845
-0.0970702
-0.0505227
-0.0128442
0.017038
0.0415883
0.0620076
-0.304128
-0.280554
-0.236105
-0.179025
-0.123291
-0.075237
-0.0359029
-0.00442418
0.0214951
0.0436259
-0.327307
-0.303431
-0.260285
-0.203751
-0.147531
-0.0983796
-0.0576853
-0.0248441
0.00219774
0.0258681
-0.346863
-0.322829
-0.28135
-0.225918
-0.169702
-0.119878
-0.0781273
-0.0441376
-0.0162307
0.00880593
-0.362801
-0.338737
-0.299238
-0.245436
-0.189726
-0.139635
-0.0972001
-0.0622708
-0.0336736
-0.00759139
-0.37518
-0.3512
-0.313937
-0.262252
-0.207547
-0.157592
-0.114808
-0.0792305
-0.0499559
-0.0235443
-0.384114
-0.360321
-0.325486
-0.276349
-0.223138
-0.173724
-0.130911
-0.0949645
-0.0652618
-0.0390389
-0.389769
-0.366257
-0.33397
-0.287748
-0.236492
-0.188026
-0.145506
-0.109456
-0.0795027
-0.0532445
-0.392361
-0.369217
-0.339522
-0.296503
-0.24763
-0.200507
-0.158594
-0.122685
-0.0926135
-0.0661799
-0.392146
-0.36946
-0.34232
-0.302709
-0.256599
-0.211193
-0.170189
-0.134654
-0.104634
-0.0781059
-0.389414
-0.367277
-0.342589
-0.306496
-0.263468
-0.220129
-0.180327
-0.145397
-0.115624
-0.0891845
-0.384483
-0.36299
-0.340597
-0.308034
-0.268334
-0.227377
-0.189056
-0.154958
-0.125623
-0.0994642
-0.377688
-0.356933
-0.336644
-0.307525
-0.271319
-0.233017
-0.196438
-0.163391
-0.134665
-0.108955
-0.36937
-0.349448
-0.331053
-0.305205
-0.272565
-0.237139
-0.202543
-0.170749
-0.142785
-0.117674
-0.359867
-0.340868
-0.324161
-0.301334
-0.272237
-0.239848
-0.207443
-0.177093
-0.150032
-0.125652
-0.349504
-0.331512
-0.3163
-0.296192
-0.270522
-0.24126
-0.211221
-0.182489
-0.156459
-0.132926
-0.338587
-0.321677
-0.307788
-0.290071
-0.267621
-0.241502
-0.213961
-0.187002
-0.162122
-0.139532
-0.327391
-0.311628
-0.298915
-0.283264
-0.263752
-0.240711
-0.215753
-0.190703
-0.16708
-0.145514
-0.31616
-0.301594
-0.289936
-0.276051
-0.259144
-0.239036
-0.21669
-0.193657
-0.17139
-0.150915
-0.3051
-0.291766
-0.281066
-0.268685
-0.254026
-0.236634
-0.21687
-0.195933
-0.175108
-0.155785
-0.29438
-0.282296
-0.272475
-0.261381
-0.248625
-0.233671
-0.216394
-0.197595
-0.178287
-0.160172
-0.284131
-0.273296
-0.264296
-0.254313
-0.243148
-0.230316
-0.21537
-0.198708
-0.180974
-0.164125
-0.274451
-0.264845
-0.256622
-0.247605
-0.23777
-0.22674
-0.213911
-0.199339
-0.183211
-0.167694
-0.265405
-0.256987
-0.249509
-0.241346
-0.23263
-0.223103
-0.212137
-0.199558
-0.185033
-0.17093
-0.257032
-0.249743
-0.242984
-0.235587
-0.227823
-0.219543
-0.21017
-0.199441
-0.186469
-0.173887
-0.249347
-0.243115
-0.237049
-0.230353
-0.223407
-0.216168
-0.208127
-0.199072
-0.242345
-0.237085
-0.231685
-0.225644
-0.219411
-0.213049
-0.206111
-0.19854
-0.236008
-0.231628
-0.226863
-0.221439
-0.215843
-0.210229
-0.204201
-0.230303
-0.226709
-0.222542
-0.217705
-0.212692
-0.207724
-0.225187
-0.222285
-0.218679
-0.214401
-0.209931
-0.220613
-0.218312
-0.215224
-0.211478
-0.216526
-0.214744
-0.212131
-0.208884
-0.21287
-0.211533
-0.209351
-0.209583
-0.208636
-0.206624
-0.206007
-0.20394
-0.201486
-0.10023
-0.108253
-0.115716
-0.122643
-0.129057
-0.134981
-0.140442
-0.145463
-0.150066
-0.154274
-0.158112
-0.0863408
-0.0940422
-0.101297
-0.108129
-0.114559
-0.120609
-0.1263
-0.131653
-0.136693
-0.141452
-0.145971
-0.0739395
-0.0812774
-0.0882651
-0.0949277
-0.101289
-0.107372
-0.113201
-0.118805
-0.124215
-0.129472
-0.134621
-0.0629279
-0.0699162
-0.0766384
-0.083116
-0.0893706
-0.0954234
-0.101297
-0.107015
-0.112601
-0.118081
-0.123467
-0.053186
-0.0598305
-0.0662709
-0.072524
-0.0786064
-0.0845343
-0.0903225
-0.0959849
-0.10153
-0.106968
-0.112293
-0.0445453
-0.0508359
-0.0569676
-0.0629523
-0.068802
-0.0745282
-0.0801398
-0.0856461
-0.0910524
-0.0963714
-0.101606
-0.0368183
-0.0427568
-0.0485693
-0.0542653
-0.0598542
-0.0653452
-0.0707465
-0.0760681
-0.0813185
-0.0865138
-0.0916594
-0.0298937
-0.0354867
-0.0409803
-0.0463825
-0.0517008
-0.0569435
-0.0621184
-0.0672347
-0.0722987
-0.0773205
-0.0822982
-0.0236877
-0.0289441
-0.0341224
-0.0392294
-0.044271
-0.0492536
-0.0541832
-0.0590661
-0.0639058
-0.0687079
-0.0734719
-0.0181172
-0.0230479
-0.0279172
-0.0327305
-0.0374924
-0.0422077
-0.0468811
-0.0515174
-0.0561203
-0.0606957
-0.0652469
-0.0130942
-0.0177145
-0.0222862
-0.0268135
-0.0313003
-0.0357506
-0.0401687
-0.044559
-0.0489253
-0.0532724
-0.057603
-0.00856251
-0.0128876
-0.0171742
-0.0214256
-0.0256451
-0.0298365
-0.0340033
-0.038149
-0.0422766
-0.0463894
-0.0504896
-0.00446253
-0.00850919
-0.0125247
-0.0165122
-0.0204748
-0.0244153
-0.0283366
-0.0322414
-0.0361325
-0.0400125
-0.0438842
-0.000749507
-0.00453369
-0.00829194
-0.012028
-0.0157445
-0.0194436
-0.0231275
-0.0267988
-0.0304599
-0.0341131
-0.037761
0.00261019
-0.000925211
-0.00443948
-0.00793617
-0.0114174
-0.0148851
-0.0183409
-0.021787
-0.0252255
-0.0286582
-0.0320873
0.00565713
0.00235629
-0.000927819
-0.00419793
-0.00745582
-0.010703
-0.0139409
-0.0171712
-0.0203957
-0.0236159
-0.0268335
0.00842758
0.00534641
0.00227845
-0.000778281
-0.00382518
-0.00686345
-0.00989436
-0.0129193
-0.0159395
-0.0189565
-0.0219716
0.0109481
0.00807265
0.00520758
0.00235154
-0.000496483
-0.00333747
-0.00617245
-0.0090025
-0.0118287
-0.0146522
-0.0174742
0.0132442
0.0105612
0.00788633
0.00521868
0.00255763
-9.75615e-05
-0.00274771
-0.00539367
-0.00803632
-0.0106765
-0.0133151
0.0153385
0.0128352
0.0103381
0.00784684
0.00536114
0.00288046
0.000404141
-0.00206845
-0.00453798
-0.00700508
-0.00947048
0.0172551
0.0149175
0.0125857
0.010259
0.0079372
0.00561977
0.0033063
0.000996355
-0.00131055
-0.0036149
-0.00591724
0.0190086
0.0168245
0.0146465
0.0124734
0.0103047
0.00813989
0.00597882
0.00382121
0.00166675
-0.000484927
-0.00263422
-0.00478144
0.0206065
0.0185673
0.0165334
0.0145039
0.0124784
0.0104565
0.00843813
0.00642325
0.00441161
0.002403
0.000397139
-0.00160614
0.0220658
0.0201621
0.0182626
0.016367
0.014475
0.0125864
0.0107014
0.00881978
0.00694155
0.0050666
0.00319477
0.001326
0.0234022
0.0216238
0.0198491
0.0180778
0.0163098
0.0145453
0.0127842
0.0110267
0.00927273
0.0075223
0.00577537
0.00403194
0.0246244
0.0229622
0.0213031
0.0196472
0.0179945
0.0163452
0.0146995
0.0130573
0.0114189
0.00978426
0.00815347
0.0065266
0.0257422
0.0241874
0.0226354
0.0210865
0.0195408
0.0179984
0.0164595
0.0149244
0.0133931
0.0118659
0.0103428
0.00882407
0.0267635
0.025308
0.0238552
0.0224052
0.0209584
0.0195149
0.018075
0.0166389
0.0152068
0.013779
0.0123556
0.0109369
0.0276955
0.0263316
0.0249702
0.0236116
0.0222561
0.0209039
0.0195554
0.0182108
0.0168703
0.0155343
0.0142028
0.0128763
0.0285444
0.0272648
0.0259876
0.0247131
0.0234417
0.0221736
0.0209092
0.0196488
0.0183926
0.017141
0.0158942
0.0146524
0.0293154
0.0281132
0.0269134
0.0257161
0.0245219
0.023331
0.0221438
0.0209606
0.0197818
0.0186076
0.0174383
0.0162742
0.0300132
0.0288818
0.0277527
0.0266261
0.0255025
0.0243822
0.0232656
0.022153
0.0210448
0.0199413
0.0188428
0.0177496
0.0306418
0.029575
0.0285102
0.0274479
0.0263885
0.0253324
0.02428
0.0232316
0.0221876
0.0211483
0.020114
0.0190851
0.0312058
0.0301969
0.0291901
0.0281859
0.0271846
0.0261865
0.025192
0.0242016
0.0232155
0.0222341
0.0212577
0.0202865
0.0317067
0.0307497
0.029795
0.0288428
0.0278936
0.0269475
0.026005
0.0250665
0.0241322
0.0232025
0.0222778
0.0213584
0.0321449
0.0312346
0.0303263
0.0294205
0.0285175
0.0276177
0.0267213
0.0258287
0.0249404
0.0240565
0.0231775
0.0223036
0.0325235
0.0316539
0.0307864
0.0299212
0.0290587
0.0281993
0.0273432
0.0264908
0.0256425
0.0247985
0.0239593
0.023125
0.0328429
0.0320083
0.0311757
0.0303453
0.0295175
0.0286926
0.0278709
0.0270528
0.0262386
0.0254286
0.0246231
0.0238223
0.0331041
0.0322987
0.0314951
0.0306937
0.0298948
0.0290986
0.0283055
0.0275158
0.0267298
0.0259477
0.0251698
0.0243965
0.0333024
0.0325202
0.0317398
0.0309615
0.0301855
0.0294121
0.0286417
0.0278744
0.0271106
0.0263505
0.0255943
0.0248423
0.0334438
0.0326784
0.0319147
0.031153
0.0303933
0.0296361
0.0288816
0.0281299
0.0273814
0.0266363
0.0258948
0.0251571
0.0335079
0.0327541
0.032002
0.0312518
0.0305037
0.0297579
0.0290144
0.0282736
0.0275355
0.0268004
0.0260683
0.0253394
0.185027
0.166961
0.150127
0.133615
0.116184
0.0984827
0.0811803
0.0643581
0.0479739
0.0320765
0.0167242
0.00194199
-0.0122561
-0.025789
-0.0388193
-0.0509072
-0.0620944
-0.0725617
-0.0823977
-0.0916187
0.175699
0.158193
0.14012
0.124206
0.108387
0.0922296
0.0764527
0.0613081
0.0466731
0.0324935
0.0188119
0.0056974
-0.00675861
-0.0183586
-0.0297423
-0.0405953
-0.0507879
-0.0604058
-0.0695283
-0.0781734
0.164727
0.148363
0.130575
0.11562
0.101683
0.0874559
0.0733672
0.05986
0.0468916
0.0343552
0.0222742
0.0107298
-0.000232403
-0.0106778
-0.0212607
-0.0313143
-0.0407347
-0.0496427
-0.0581311
-0.0662283
0.153305
0.138419
0.121833
0.108051
0.0957312
0.0832433
0.0706868
0.0585728
0.0469809
0.035788
0.0249492
0.0144814
0.00440162
-0.00526714
-0.0142584
-0.0232102
-0.0318948
-0.0401742
-0.0480769
-0.0556533
0.142574
0.129247
0.114165
0.101596
0.0906197
0.0796121
0.0684351
0.0575611
0.0471605
0.0371406
0.0274301
0.0180406
0.00900924
0.000359275
-0.00792082
-0.0161509
-0.0241663
-0.0318529
-0.0392218
-0.0463222
0.132886
0.120975
0.107411
0.0960187
0.0861779
0.0764152
0.0664591
0.0566974
0.0473414
0.038339
0.0296099
0.0211419
0.0129555
0.00505463
-0.00256969
-0.0101383
-0.0175001
-0.0245936
-0.0314421
-0.0380847
0.124211
0.113537
0.101411
0.0911414
0.0822936
0.0735881
0.0647015
0.0559332
0.0474969
0.0393745
0.0314917
0.0238261
0.0163954
0.00920991
0.0022411
-0.00477024
-0.0115792
-0.0181516
-0.0245287
-0.0307452
0.116456
0.106869
0.0960642
0.0868446
0.0788787
0.0710789
0.0631214
0.0552329
0.0476082
0.0402501
0.0330924
0.0260998
0.0192671
0.012598
0.00610345
-8.81108e-05
-0.00627934
-0.0123948
-0.0183657
-0.0241919
0.109535
0.100917
0.0913005
0.0830385
0.0758576
0.0688405
0.0616896
0.0545771
0.0476726
0.0409909
0.0344798
0.0281073
0.0218725
0.015787
0.00986087
0.00410103
-0.00164163
-0.00732428
-0.0128942
-0.0183432
0.103364
0.0956105
0.0870517
0.0796485
0.0731649
0.0668301
0.0603818
0.0539536
0.0476895
0.0416095
0.0356735
0.0298529
0.0241438
0.0185522
0.0130806
0.00773106
0.00240694
-0.00285865
-0.00803455
-0.0131169
0.0978613
0.0908782
0.0832524
0.076612
0.0707473
0.065011
0.0591779
0.0533535
0.0476586
0.0421144
0.0366899
0.0313602
0.0261199
0.0209726
0.0159188
0.0109553
0.00601088
0.00112552
-0.00368331
-0.00841982
0.0929465
0.0866494
0.0798436
0.0738776
0.0685618
0.0633533
0.0580612
0.0527704
0.0475817
0.0425155
0.0375477
0.0326578
0.0278405
0.023099
0.0184332
0.0138349
0.0092314
0.00468944
0.000218012
-0.00419574
0.0885477
0.082861
0.0767742
0.0714031
0.0665747
0.0618334
0.0570191
0.052201
0.047463
0.0428235
0.0382634
0.0337652
0.0293239
0.0249405
0.0206158
0.0163468
0.0121119
0.00790591
0.00374072
-0.000380799
0.0846013
0.0794574
0.074001
0.0691543
0.0647593
0.0604333
0.056043
0.0516453
0.04731
0.0430532
0.0388597
0.0347144
0.0306122
0.0265529
0.0225384
0.0185739
0.0146892
0.0107995
0.00691775
0.00306619
0.0810515
0.076391
0.0714875
0.0671034
0.0630946
0.0591393
0.055127
0.0511048
0.0471312
0.0432202
0.0393599
0.0355384
0.031752
0.0280017
0.0242901
0.0206198
0.0169976
0.013376
0.00976212
0.00617166
0.0778504
0.0736205
0.0692027
0.0652274
0.0615635
0.0579404
0.0542663
0.0505809
0.0469329
0.0433348
0.0397772
0.0362504
0.0327514
0.029281
0.0258405
0.022431
0.0190552
0.0156836
0.0123215
0.00897821
0.0749563
0.0711107
0.0671204
0.0635071
0.0601521
0.0568272
0.0534567
0.0500739
0.0467198
0.043405
0.040122
0.0368632
0.033626
0.030411
0.0272192
0.0240511
0.0209076
0.0177682
0.0146384
0.0115244
0.0723335
0.0688313
0.0652183
0.0619262
0.0588482
0.055792
0.0526948
0.0495846
0.046496
0.043438
0.0404049
0.0373903
0.0343923
0.0314114
0.0284483
0.0255034
0.0225764
0.0196521
0.0167372
0.0138358
0.0699513
0.0667564
0.063477
0.0604708
0.057642
0.0548282
0.0519774
0.0491135
0.0462652
0.0434407
0.0406352
0.0378438
0.0350648
0.0322987
0.0295462
0.0268073
0.0240813
0.0213557
0.0186398
0.0159364
0.067783
0.0648638
0.0618802
0.0591289
0.0565246
0.0539301
0.051302
0.0486608
0.0460306
0.0434185
0.0408208
0.0382336
0.0356557
0.0330876
0.0305302
0.0279833
0.0254453
0.0229013
0.0203686
0.0178489
0.0658057
0.0631342
0.0604136
0.0578902
0.0554885
0.0530925
0.0506662
0.0482267
0.0457945
0.0433756
0.0409673
0.0385664
0.0361719
0.0337845
0.0314049
0.0290334
0.0266696
0.0243071
0.0219497
0.019599
0.0639998
0.0615511
0.0590649
0.0567459
0.0545274
0.0523115
0.0500682
0.0478118
0.0455597
0.0433171
0.0410817
0.038851
0.0366241
0.0344014
0.0321832
0.0299707
0.0277664
0.0255827
0.0233929
0.0211991
0.0623482
0.0601003
0.0578236
0.0556883
0.0536359
0.0515838
0.049507
0.0474174
0.0453298
0.0432487
0.0411726
0.0390994
0.0370287
0.0349612
0.0328975
0.0308389
0.0287865
0.0267439
0.0246983
0.022651
0.0608361
0.0587696
0.0566806
0.0547107
0.0528091
0.0509062
0.0489809
0.0470435
0.0451062
0.043173
0.041243
0.0393144
0.0373872
0.0354618
0.0335389
0.0316193
0.0297038
0.0277945
0.0258842
0.0239737
0.0594505
0.0575479
0.0556274
0.0538068
0.0520423
0.0502753
0.0484882
0.0466894
0.0448894
0.0430916
0.0412954
0.0394996
0.0377041
0.0359094
0.0341161
0.032325
0.0305367
0.0287525
0.026968
0.0251839
0.05818
0.0564258
0.0546567
0.052971
0.0513312
0.0496882
0.048027
0.0463547
0.0446801
0.0430063
0.0413329
0.0396589
0.0379844
0.0363099
0.0346361
0.0329636
0.0312929
0.0296249
0.0279569
0.0262896
0.0570145
0.0553947
0.053762
0.0521983
0.0506721
0.049142
0.0475957
0.0460388
0.0444789
0.0429185
0.0413576
0.0397955
0.0382322
0.0366683
0.0351045
0.0335413
0.0319793
0.0304191
0.0288589
0.0272996
0.0559455
0.0544472
0.0529374
0.0514843
0.0500614
0.0486344
0.0471927
0.0457413
0.0442861
0.0428296
0.0413717
0.0399122
0.0384511
0.036989
0.0355264
0.0340639
0.0326021
0.0311415
0.0296811
0.0282214
0.0549653
0.0535769
0.0521779
0.0508249
0.0494962
0.0481631
0.0468169
0.0454615
0.0441019
0.0427404
0.041377
0.0400115
0.0386442
0.0372754
0.0359059
0.0345362
0.0331667
0.031798
0.0304294
0.0290616
0.0540674
0.0527784
0.0514792
0.0502169
0.0489737
0.0477262
0.0464669
0.045199
0.0439267
0.0426519
0.0413749
0.0400955
0.038814
0.0375309
0.0362468
0.0349621
0.0336775
0.0323934
0.0311093
0.029826
0.0532462
0.0520468
0.0508375
0.0496573
0.0484919
0.047322
0.0461417
0.0449533
0.0437605
0.0425648
0.0413666
0.0401658
0.0389628
0.037758
0.0365521
0.0353454
0.0341386
0.032932
0.0317253
0.0305196
0.0524973
0.0513784
0.0502498
0.0491437
0.0480486
0.0469492
0.0458405
0.0447243
0.0436035
0.0424797
0.0413531
0.0402239
0.0390924
0.037959
0.0368244
0.0356889
0.0345531
0.0334173
0.0322814
0.0311465
0.0518167
0.05077
0.0497136
0.0486741
0.0476426
0.0466067
0.0455625
0.0445114
0.0434559
0.0423971
0.0413355
0.0402712
0.0392045
0.0381361
0.0370663
0.0359956
0.0349245
0.0338533
0.0327813
0.0317107
0.0512018
0.0502191
0.049227
0.048247
0.0472724
0.0462936
0.0453072
0.0443146
0.0433176
0.0423173
0.041314
0.0403081
0.0392999
0.0382899
0.0372784
0.0362661
0.0352533
0.0342406
0.0332282
0.0322164
0.0506505
0.0497241
0.0487888
0.0478616
0.0469376
0.0460094
0.0450745
0.0441339
0.043189
0.0422408
0.0412897
0.040336
0.03938
0.0384221
0.0374628
0.0365026
0.035542
0.0345817
0.0336235
0.032665
0.0501617
0.0492843
0.0483985
0.0475175
0.0466379
0.0457543
0.0448648
0.0439699
0.0430711
0.042169
0.0412641
0.0403566
0.039447
0.0385357
0.0376231
0.0367096
0.0357957
0.034882
0.0339693
0.0330568
0.0497352
0.0488996
0.048056
0.0472147
0.0463735
0.0455284
0.044678
0.0438228
0.0429639
0.0421018
0.041237
0.0403699
0.0395007
0.0386299
0.0377579
0.0368851
0.0360119
0.0351388
0.0342664
0.0333945
0.0493716
0.0485704
0.047762
0.046954
0.046145
0.0453322
0.0445148
0.0436931
0.0428679
0.0420398
0.0412092
0.0403763
0.0395416
0.0387054
0.0378681
0.0370301
0.0361918
0.0353536
0.034516
0.0336789
0.0490724
0.0482985
0.047518
0.0467366
0.0459534
0.0451668
0.044376
0.0435816
0.042784
0.0419837
0.0411812
0.0403767
0.0395706
0.0387631
0.0379547
0.0371457
0.0363364
0.0355273
0.0347188
0.0339109
0.0488403
0.048086
0.0473259
0.046564
0.0458001
0.045033
0.0442624
0.0434886
0.042712
0.0419331
0.0411522
0.0403696
0.0395856
0.0388006
0.0380147
0.0372285
0.0364422
0.0356561
0.0348707
0.034086
0.0486795
0.0479369
0.0471894
0.0464401
0.0456888
0.0449348
0.0441779
0.0434184
0.0426566
0.0418929
0.0411276
0.0403609
0.039593
0.0388244
0.0380552
0.0372857
0.0365162
0.035747
0.0349783
0.0342105
0.0485949
0.0478551
0.0471108
0.0463646
0.0456168
0.0448669
0.0441148
0.0433608
0.0426052
0.0418484
0.0410905
0.0403318
0.0395726
0.0388131
0.0380535
0.0372941
0.0365351
0.0357768
0.0350195
0.0342631
0.184582
0.186111
0.188923
0.192891
0.197801
0.203594
0.210067
0.217162
0.224626
0.232377
0.240047
0.247508
0.254199
0.259962
0.263926
0.266013
0.264777
0.260538
0.250448
0.235851
0.209246
0.183507
0.18497
0.187656
0.191435
0.196087
0.20154
0.207582
0.214137
0.220935
0.227872
0.234562
0.240856
0.246182
0.250365
0.252556
0.252641
0.249323
0.242732
0.230855
0.214536
0.192703
0.182326
0.183716
0.186257
0.189822
0.194184
0.19926
0.204826
0.210793
0.216876
0.222957
0.228637
0.233757
0.237754
0.240452
0.241064
0.239479
0.234638
0.22665
0.214423
0.198693
0.179798
0.181033
0.182343
0.184729
0.188064
0.192117
0.196794
0.201862
0.207219
0.21257
0.217782
0.222457
0.226426
0.229156
0.230468
0.229685
0.226685
0.220726
0.21187
0.199689
0.18457
0.167055
0.179625
0.180849
0.183072
0.186164
0.189895
0.194157
0.198714
0.203448
0.208064
0.212411
0.216109
0.218972
0.220525
0.220575
0.218588
0.214426
0.207636
0.198229
0.186118
0.17152
0.155046
0.178098
0.179232
0.181283
0.184121
0.187517
0.191351
0.195386
0.199489
0.203372
0.206869
0.209625
0.211443
0.211917
0.210847
0.207841
0.202757
0.195356
0.185633
0.173667
0.159679
0.144275
0.176448
0.177487
0.17936
0.181934
0.184984
0.188379
0.191885
0.195355
0.198514
0.201182
0.203041
0.203886
0.203384
0.201341
0.197486
0.191694
0.18387
0.174029
0.162339
0.149052
0.134712
0.174672
0.175613
0.177301
0.179602
0.182298
0.185246
0.188221
0.191062
0.193513
0.195386
0.1964
0.196353
0.194982
0.192109
0.187562
0.181249
0.173167
0.163368
0.152067
0.139511
0.126181
0.172769
0.173607
0.175105
0.177127
0.179463
0.181961
0.184407
0.18663
0.188397
0.189514
0.189744
0.188892
0.186759
0.183194
0.178103
0.171427
0.163232
0.153595
0.142751
0.130924
0.118545
0.170736
0.17147
0.172774
0.174511
0.176485
0.178534
0.180458
0.18208
0.183192
0.183602
0.183112
0.181545
0.178758
0.17463
0.169126
0.162225
0.154032
0.144642
0.134297
0.123189
0.111705
0.168574
0.169201
0.170308
0.171759
0.17337
0.174976
0.176389
0.177435
0.177926
0.177682
0.176542
0.174351
0.171012
0.166439
0.160641
0.153627
0.145528
0.136448
0.126624
0.116218
0.105577
0.166283
0.166801
0.16771
0.168876
0.170128
0.171299
0.172218
0.172715
0.172626
0.171786
0.170067
0.16734
0.163548
0.158637
0.152648
0.145614
0.137681
0.128953
0.11966
0.109933
0.100081
0.163865
0.164274
0.164986
0.165869
0.166767
0.167517
0.167964
0.167945
0.167321
0.165944
0.163717
0.160539
0.156387
0.151231
0.145139
0.13816
0.130447
0.122101
0.113336
0.104259
0.0951431
0.161321
0.161623
0.162139
0.162745
0.1633
0.163646
0.163645
0.163147
0.162034
0.160181
0.157518
0.15397
0.14954
0.144223
0.138102
0.131239
0.123786
0.115837
0.107592
0.0991316
0.0906981
0.158657
0.158853
0.159177
0.159514
0.159738
0.1597
0.15928
0.158342
0.156791
0.154523
0.151492
0.147649
0.143016
0.13761
0.131522
0.124821
0.117655
0.11011
0.102368
0.0944903
0.0866885
0.155877
0.155971
0.156108
0.156186
0.156094
0.155697
0.154889
0.153553
0.151614
0.14899
0.145656
0.141587
0.136819
0.131383
0.125379
0.118876
0.112015
0.104872
0.0976143
0.0902825
0.0830638
0.152989
0.152983
0.152941
0.152773
0.152384
0.151652
0.15049
0.148799
0.146522
0.1436
0.140026
0.135791
0.130946
0.125533
0.119652
0.113372
0.106826
0.10008
0.0932829
0.0864617
0.0797802
0.149999
0.149899
0.149687
0.149287
0.148621
0.147584
0.146103
0.1441
0.141535
0.138369
0.13461
0.130265
0.125395
0.120046
0.11432
0.108281
0.102053
0.0956926
0.0893321
0.0829866
0.0767995
0.146918
0.14673
0.146357
0.145742
0.144821
0.143507
0.141745
0.139472
0.136668
0.133308
0.129416
0.125011
0.120157
0.114908
0.109358
0.103573
0.0976609
0.0916727
0.0857243
0.079821
0.0740885
0.143756
0.143485
0.142964
0.142151
0.141
0.13944
0.137432
0.134933
0.131934
0.128429
0.124449
0.120025
0.115224
0.110101
0.104747
0.0992192
0.0936189
0.0879871
0.0824259
0.076933
0.0716183
0.140525
0.140179
0.139521
0.13853
0.137173
0.135399
0.133182
0.130495
0.127345
0.123737
0.119711
0.115305
0.110586
0.105611
0.100462
0.0951947
0.0898977
0.0846054
0.0794072
0.0742946
0.0693638
0.137238
0.136825
0.136045
0.134895
0.133357
0.131399
0.129008
0.126173
0.122911
0.119238
0.115202
0.110844
0.106232
0.101419
0.0964833
0.0914743
0.0864706
0.0815004
0.0766415
0.0718811
0.0673032
0.13391
0.133437
0.132549
0.13126
0.129568
0.127456
0.124925
0.121977
0.118639
0.114937
0.110921
0.106636
0.102148
0.0975094
0.0927904
0.0880353
0.0833135
0.0786477
0.0741055
0.069671
0.0654174
0.130557
0.130031
0.12905
0.127642
0.125821
0.123584
0.120945
0.117917
0.114536
0.110834
0.106864
0.102673
0.0983245
0.0938666
0.0893644
0.0848567
0.0804043
0.0760254
0.0717784
0.0676452
0.0636899
0.127194
0.126624
0.125564
0.124058
0.122131
0.119797
0.117079
0.114002
0.110606
0.10693
0.103028
0.0989475
0.094748
0.0904753
0.0861876
0.0819193
0.0777233
0.0736139
0.0696416
0.0657872
0.0621061
0.12384
0.123233
0.122109
0.120523
0.118514
0.116109
0.11334
0.11024
0.106854
0.103226
0.0994092
0.0954511
0.0914076
0.0873211
0.0832437
0.0792056
0.0752526
0.0713961
0.067679
0.0640821