/*--------------------------------*- C++ -*----------------------------------*\
  =========                 |
  \\      /  F ield         | OpenFOAM: The Open Source CFD Toolbox
   \\    /   O peration     | Website:  https://openfoam.org
    \\  /    A nd           | Version:  7
     \\/     M anipulation  |
\*---------------------------------------------------------------------------*/
FoamFile
{
    version     2.0;
    format      ascii;
    class       surfaceScalarField;
    location    "40";
    object      phi;
}
// * * * * * * * * * * * * * * * * * * * * * * * * * * * * * * * * * * * * * //

dimensions      [0 3 -1 0 0 0 0];

internalField   nonuniform List<scalar> 
12526
(
7.80691e-05
7.95128e-05
8.05958e-05
-6.89803e-07
8.12856e-05
0.000186624
-2.06702e-07
8.14923e-05
0.000179963
4.09183e-07
8.10831e-05
1.0161e-05
0.000170212
0.000190252
1.18022e-06
7.99029e-05
1.4658e-05
0.000156734
5.17049e-05
0.000153205
5.38801e-05
2.18592e-06
7.7717e-05
2.01291e-05
0.000138791
6.69173e-05
0.000106417
-3.80194e-05
3.47392e-06
7.42431e-05
2.6743e-05
0.000115522
8.48376e-05
4.83222e-05
0.000196328
-0.00014951
-0.000506082
5.08882e-06
6.91543e-05
3.4638e-05
8.59725e-05
0.000105691
-2.27307e-05
0.000239009
-0.000282828
0.000458109
-0.000725182
-0.00137647
7.06604e-06
6.20882e-05
4.39081e-05
4.91305e-05
0.000129571
-0.000108394
0.000286671
-0.000439927
0.000538646
-0.000977158
0.00090058
-0.0017384
-0.00270143
9.42952e-06
5.26587e-05
5.45944e-05
3.96561e-06
0.000156416
-0.000210215
0.000338727
-0.000622238
0.000622999
-0.00126143
0.0010154
-0.0021308
0.00149271
-0.00317874
-0.00430736
1.2191e-05
4.04677e-05
6.66789e-05
-5.05223e-05
0.000185983
-0.000329519
0.000394163
-0.000830419
0.000708279
-0.00157555
0.00112248
-0.002545
0.00159861
-0.00365487
0.00207872
-0.00478747
-0.00583334
1.53498e-05
2.51179e-05
8.00803e-05
-0.000115253
0.000217845
-0.000467284
0.000451537
-0.00106411
0.000791029
-0.00191504
0.00121648
-0.00297045
0.00167791
-0.0041163
0.00211826
-0.00522782
0.00250232
-0.0062174
-0.00708275
1.88923e-05
6.22565e-06
9.46513e-05
-0.000191012
0.000251379
-0.000624011
0.00050902
-0.00132175
0.000867561
-0.00227358
0.00129303
-0.00339593
0.00172863
-0.00455189
0.0021237
-0.00562289
0.00245571
-0.00654941
-0.00735463
0.00272759
2.27914e-05
-1.65658e-05
0.000110176
-0.000278396
0.000285775
-0.00079961
0.000564508
-0.00160049
0.000934389
-0.00264346
0.00134923
-0.00381076
0.001751
-0.00495367
0.00209898
-0.00597087
0.00238267
-0.00683311
-0.00758416
0.0026122
2.70055e-05
-4.35712e-05
0.000126368
-0.000377759
0.000320055
-0.000993296
0.000615783
-0.00189621
0.000988634
-0.00301631
0.00138376
-0.00420589
0.00174689
-0.00531679
0.00204869
-0.00627267
0.00228897
-0.00707339
-0.00777786
0.00248268
3.14766e-05
-7.50478e-05
0.000142876
-0.000489158
0.000353115
-0.00120354
0.000660722
-0.00220382
0.00102831
-0.00338389
0.00139678
-0.00457436
0.00171918
-0.00563919
0.00197749
-0.00653099
0.00217956
-0.00727545
-0.00794129
0.00234298
3.61303e-05
-0.000111178
0.000159284
-0.000612312
0.000383795
-0.00142805
0.000697506
-0.00251753
0.0010524
-0.00373879
0.00138952
-0.00491148
0.00167123
-0.0059209
0.0018897
-0.00674946
0.0020585
-0.00744426
-0.0080789
0.00219611
4.08761e-05
-0.000152054
0.000175135
-0.000746571
0.000410955
-0.00166387
0.000724782
-0.00283136
0.00106085
-0.00407486
0.00136396
-0.00521459
0.00160647
-0.00616341
0.00178909
-0.00693208
0.00192903
-0.0075842
-0.00819416
0.0020443
4.5609e-05
-0.000197663
0.000189946
-0.000890908
0.000433576
-0.0019075
0.000741747
-0.00313953
0.00105431
-0.00438742
0.00132243
-0.00548271
0.00152814
-0.00636912
0.00167887
-0.00708281
0.00179366
-0.00769899
-0.00828967
0.00188917
5.02135e-05
-0.000247877
0.000203233
-0.00104393
0.00045083
-0.00215509
0.000748143
-0.00343684
0.00103398
-0.00467325
0.00126739
-0.00571612
0.00143917
-0.00654089
0.00156163
-0.00720528
0.0016543
-0.00779166
-0.0083673
0.00173193
5.45673e-05
-0.000302444
0.000214548
-0.00120391
0.000462141
-0.00240269
0.000744194
-0.0037189
0.00100138
-0.00493044
0.00120125
-0.00591599
0.00134207
-0.00668172
0.00143947
-0.00730268
0.00151238
-0.00786456
-0.00842838
0.00157346
5.85475e-05
-0.000360991
0.000223499
-0.00136886
0.000467206
-0.00264639
0.000730499
-0.00398219
0.000958183
-0.00515813
0.00112621
-0.00608402
0.00123898
-0.00679448
0.00131402
-0.00737772
0.00136898
-0.00791952
-0.00847385
0.00141445
6.20359e-05
-0.000423027
0.000229775
-0.0015366
0.000465983
-0.0028826
0.000707918
-0.00422412
0.000906067
-0.00535627
0.00104426
-0.00622221
0.00113164
-0.00688186
0.00118655
-0.00743263
0.00122492
-0.00795789
-0.00850435
0.00125542
6.4925e-05
-0.000487952
0.000233167
-0.00170484
0.000458664
-0.0031081
0.000677466
-0.00444292
0.000846651
-0.00552546
0.000957113
-0.00633267
0.00102149
-0.00694624
0.00105804
-0.00746918
0.0010808
-0.00798065
-0.00852032
0.00109677
6.71217e-05
-0.000555074
0.000233564
-0.00187128
0.000445622
-0.00332016
0.000640225
-0.00463753
0.000781429
-0.00566666
0.000866235
-0.00641748
0.000909664
-0.00698967
0.000929249
-0.00748876
0.000937094
-0.00798849
-0.00852202
0.000938791
6.85524e-05
-0.000623626
0.00023096
-0.00203369
0.00042736
-0.00351656
0.000597282
-0.00480745
0.000711738
-0.00578112
0.000772849
-0.00647859
0.000797067
-0.00701389
0.000800765
-0.00749246
0.000794184
-0.00798191
-0.00850958
0.00078175
6.91644e-05
-0.000692791
0.000225437
-0.00218996
0.000404461
-0.00369558
0.000549678
-0.00495267
0.000638757
-0.0058702
0.000677969
-0.0065178
0.000684415
-0.00702033
0.000673038
-0.00748108
0.000652367
-0.00796124
-0.00848304
0.00062583
6.89269e-05
-0.000761718
0.000217154
-0.00233819
0.000377549
-0.00385598
0.000498382
-0.0050735
0.000563503
-0.00593532
0.000582428
-0.00653673
0.000572276
-0.00701018
0.000546419
-0.00745523
0.000511887
-0.00792671
-0.00844234
0.000471186
6.78307e-05
-0.000829548
0.000206325
-0.00247669
0.00034725
-0.0039969
0.000444275
-0.00517053
0.000486844
-0.00597789
0.000486911
-0.0065368
0.000461127
-0.0069844
0.00042122
-0.00741532
0.000372901
-0.00787839
-0.00838741
0.000317963
6.58872e-05
-0.000895436
0.000193204
-0.002604
0.00031417
-0.00411787
0.000388138
-0.00524449
0.000409512
-0.00599926
0.000391978
-0.00651926
0.000351389
-0.00694381
0.000297832
-0.00736176
0.000235481
-0.00781604
-0.00831798
0.000166059
6.31269e-05
-0.000958563
0.000178069
-0.00271895
0.000278884
-0.00421868
0.000330656
-0.00529626
0.000332113
-0.00600072
0.000298071
-0.00648522
0.000243386
-0.00688912
0.000176695
-0.00729507
0.000100381
-0.00773973
-0.00822897
1.13636e-05
5.95994e-05
-0.00101816
0.000161232
-0.00282058
0.000241922
-0.00429937
0.000272425
-0.00532677
0.000255149
-0.00598345
0.000205536
-0.00643561
0.000137302
-0.00682089
5.75566e-05
-0.00721533
-3.04338e-05
-0.00765174
-0.00812934
-0.000130062
5.53675e-05
-0.00107353
0.000142984
-0.00290819
0.00020377
-0.00436016
0.000213955
-0.00533695
0.000179032
-0.00594852
0.000114663
-0.00637124
3.31682e-05
-0.0067394
-5.90537e-05
-0.0071231
-0.000161466
-0.00754932
-0.00801876
-0.000272044
5.05048e-05
-0.00112403
0.000123607
-0.0029813
0.000164863
-0.00440141
0.000155675
-0.00532776
0.000104092
-0.00589694
2.56041e-05
-0.00629275
-6.82395e-05
-0.00664555
-0.000172841
-0.0070185
-0.000288293
-0.00743387
-0.00789502
-0.000412033
4.50945e-05
-0.00116913
0.000103374
-0.00303958
0.000125589
-0.00442363
9.79425e-05
-0.00530012
3.06286e-05
-0.00582963
-6.11244e-05
-0.006201
-0.000167207
-0.00653947
-0.000284147
-0.00690156
-0.000412083
-0.00730594
-0.00775798
-0.000549124
3.92246e-05
-0.00120835
8.25618e-05
-0.00308291
8.62754e-05
-0.00442734
4.11274e-05
-0.00525497
-4.11266e-05
-0.00574737
-0.000145666
-0.00609646
-0.000263712
-0.00642142
-0.000392616
-0.00677266
-0.000532879
-0.00716567
-0.00760789
-0.000682965
3.29782e-05
-0.00124133
6.14384e-05
-0.00311137
4.72569e-05
-0.00441316
-1.44594e-05
-0.00519325
-0.00011101
-0.00565082
-0.000227927
-0.00597954
-0.000357585
-0.00629177
-0.000498155
-0.00663209
-0.00065055
-0.00701328
-0.00744525
-0.000813189
2.64505e-05
-0.00126778
4.01911e-05
-0.00312511
9.61017e-06
-0.00438258
-6.9018e-05
-0.00511463
-0.000179007
-0.00554083
-0.000307781
-0.00585077
-0.000448732
-0.00615082
-0.000600704
-0.00648012
-0.000764945
-0.00684904
-0.00727078
-0.000939417
1.9845e-05
-0.00128763
1.90304e-05
-0.0031243
-2.92927e-05
-0.00433426
-0.000122133
-0.00502179
-0.000244928
-0.00541804
-0.00038514
-0.00571055
-0.000537081
-0.00599887
-0.000700194
-0.006317
-0.000875951
-0.00667328
-0.007085
-0.00106173
1.31118e-05
-0.00130074
-9.85163e-08
-0.00311109
-6.65992e-05
-0.00426776
-0.000173789
-0.0049146
-0.000308706
-0.00528312
-0.00045994
-0.00555932
-0.000622597
-0.00583622
-0.000796596
-0.006143
-0.000983607
-0.00648627
-0.00688771
-0.00118089
5.76356e-06
-0.0013065
-2.36233e-05
-0.0030817
-0.00010306
-0.00418832
-0.000223704
-0.00479395
-0.000370247
-0.00513658
-0.000532139
-0.00539743
-0.000705328
-0.00566303
-0.000890061
-0.00595827
-0.00108786
-0.00628847
-0.00667907
-0.0012965
-1.82917e-06
-0.00130467
-4.47999e-05
-0.00303873
-0.000138425
-0.00409469
-0.000271771
-0.00466061
-0.000429428
-0.00497892
-0.000601667
-0.00522519
-0.000785342
-0.00547935
-0.000980989
-0.00576262
-0.00118839
-0.00608107
-0.00646085
-0.00140662
-8.7004e-06
-0.00129597
-6.51404e-05
-0.00298229
-0.000172526
-0.00398731
-0.000317929
-0.0045152
-0.00048616
-0.00481069
-0.000668389
-0.00504296
-0.000862381
-0.00528536
-0.00106921
-0.00555579
-0.00128951
-0.00586077
-0.00624394
-0.00150642
-1.57218e-05
-0.00128025
-8.48041e-05
-0.00291321
-0.000205274
-0.00386684
-0.000362099
-0.00435838
-0.000540374
-0.00463241
-0.000732161
-0.00485117
-0.000935851
-0.00508167
-0.00115169
-0.00533995
-0.00137716
-0.0056353
-0.00597445
-0.00164665
-2.26316e-05
-0.00125762
-0.000103782
-0.00283206
-0.00023661
-0.00373401
-0.000404224
-0.00419077
-0.000592035
-0.0044446
-0.000792913
-0.0046503
-0.00100541
-0.00486918
-0.0012292
-0.00511617
-0.00146617
-0.00539833
-0.00570756
-0.00173306
-2.93622e-05
-0.00122826
-0.000122022
-0.0027394
-0.000266484
-0.00358955
-0.000444258
-0.00401299
-0.000641107
-0.00424775
-0.000850644
-0.00444076
-0.00107176
-0.00464806
-0.00130494
-0.00488299
-0.00155348
-0.00514978
-0.0054383
-0.00182273
-3.58731e-05
-0.00119238
-0.000139465
-0.00263581
-0.000294852
-0.00343416
-0.000482165
-0.00382568
-0.000687541
-0.00404238
-0.00090526
-0.00422304
-0.00113456
-0.00441876
-0.0013764
-0.00464115
-0.00163372
-0.00489247
-0.00516359
-0.00190843
-4.21319e-05
-0.00115025
-0.00015606
-0.00252188
-0.000321675
-0.00326855
-0.000517917
-0.00362944
-0.000731318
-0.00382898
-0.000956787
-0.00399757
-0.00119392
-0.00418162
-0.00144397
-0.00439111
-0.00170929
-0.00462715
-0.00488223
-0.00199064
-4.81104e-05
-0.00110214
-0.000171763
-0.00239823
-0.000346921
-0.00309339
-0.000551491
-0.00342487
-0.000772419
-0.00360805
-0.00100519
-0.0037648
-0.00124973
-0.00393708
-0.00150741
-0.00413343
-0.00178021
-0.00435436
-0.00459376
-0.00206868
-5.37834e-05
-0.00104836
-0.000186537
-0.00226547
-0.000370562
-0.00290936
-0.000582873
-0.00321256
-0.000810828
-0.00338009
-0.00105046
-0.00352517
-0.00130196
-0.00368557
-0.00156677
-0.00386862
-0.00184666
-0.00407447
-0.00429816
-0.00214227
-5.9129e-05
-0.00098923
-0.000200352
-0.00212425
-0.000392577
-0.00271714
-0.000612048
-0.00299308
-0.000846536
-0.0031456
-0.00109256
-0.00327914
-0.00135057
-0.00342757
-0.00162203
-0.00359715
-0.00190864
-0.00378786
-0.00399563
-0.00221117
-6.41278e-05
-0.000925102
-0.000213183
-0.00197519
-0.00041295
-0.00251737
-0.000639009
-0.00276703
-0.000879534
-0.00290508
-0.00113149
-0.00302718
-0.00139553
-0.00316354
-0.00167317
-0.00331951
-0.00196609
-0.00349494
-0.00368652
-0.0022752
-6.87634e-05
-0.000856338
-0.000225009
-0.00181895
-0.000431668
-0.00231071
-0.000663749
-0.00253494
-0.000909813
-0.00265901
-0.00116723
-0.00276977
-0.00143681
-0.00289395
-0.00172016
-0.00303617
-0.00201894
-0.00319615
-0.00337126
-0.0023342
-7.30214e-05
-0.000783317
-0.000235813
-0.00165616
-0.000448722
-0.0020978
-0.000686267
-0.0022974
-0.000937371
-0.00240791
-0.00119976
-0.00250738
-0.00147441
-0.0026193
-0.00176297
-0.00274761
-0.00206713
-0.00289199
-0.00305034
-0.00238806
-7.68899e-05
-0.000706427
-0.000245583
-0.00148746
-0.000464105
-0.00187928
-0.000706561
-0.00205494
-0.000962205
-0.00215227
-0.00122908
-0.0022405
-0.0015083
-0.00234009
-0.00180156
-0.00245435
-0.00211059
-0.00258295
-0.00272428
-0.00243666
-8.03587e-05
-0.000626068
-0.000254308
-0.00131351
-0.000477814
-0.00165577
-0.000724633
-0.00180812
-0.000984318
-0.00189258
-0.00125519
-0.00196963
-0.00153846
-0.00205681
-0.0018359
-0.00215691
-0.00214927
-0.00226958
-0.00239363
-0.00247991
-8.34192e-05
-0.000542649
-0.000261978
-0.00113496
-0.000489848
-0.00142791
-0.000740486
-0.00155749
-0.00100372
-0.00162935
-0.00127808
-0.00169526
-0.00156491
-0.00176999
-0.00186599
-0.00185583
-0.00218313
-0.00195245
-0.00205899
-0.00251776
-8.6064e-05
-0.000456585
-0.000268588
-0.000952431
-0.000500203
-0.00119629
-0.000754124
-0.00130357
-0.0010204
-0.00136307
-0.00129778
-0.00141789
-0.00158764
-0.00148013
-0.00189182
-0.00155164
-0.00221215
-0.00163212
-0.00172098
-0.00255017
-8.82866e-05
-0.000368299
-0.00027413
-0.000766588
-0.000508877
-0.000961543
-0.000765549
-0.00104689
-0.00103439
-0.00109423
-0.0013143
-0.00113798
-0.00160669
-0.00118774
-0.00191343
-0.0012449
-0.00223636
-0.00130919
-0.00138022
-0.00257712
-9.00814e-05
-0.000278217
-0.000278597
-0.000578073
-0.000515868
-0.000724272
-0.000774763
-0.000787999
-0.00104569
-0.000823304
-0.00132764
-0.00085603
-0.00162209
-0.000893291
-0.00193088
-0.000936111
-0.00225583
-0.00098424
-0.00103739
-0.00259866
-9.14429e-05
-0.000186774
-0.000281982
-0.000387534
-0.000521168
-0.000485086
-0.00078176
-0.000527407
-0.00105429
-0.000550778
-0.00133783
-0.000572481
-0.00163388
-0.000597248
-0.00194424
-0.000625747
-0.0022707
-0.000657784
-0.000693127
-0.00261496
-9.23661e-05
-9.44082e-05
-0.000284278
-0.000195622
-0.000524767
-0.000244597
-0.000786526
-0.000265647
-0.00106017
-0.000277133
-0.00134486
-0.000287796
-0.00164207
-0.000300033
-0.00195362
-0.000314196
-0.00228119
-0.000330212
-0.000347879
-0.00262644
-9.28465e-05
-1.5617e-06
-0.000285474
-2.99441e-06
-0.000526652
-3.41949e-06
-0.000789041
-3.25787e-06
-0.00106331
-2.86349e-06
-0.00134866
-2.44502e-06
-0.00164661
-2.08501e-06
-0.00195899
-1.81397e-06
-0.00228755
-1.64941e-06
-1.6061e-06
-0.00263383
-9.28802e-05
9.13185e-05
-0.000285564
0.000189689
-0.000526807
0.000237824
-0.000789277
0.000259212
-0.00106365
0.000271512
-0.00134915
0.000283051
-0.00164731
0.000296073
-0.00196001
0.000310893
-0.0022891
0.000327438
0.000345643
-0.00263635
-9.24648e-05
0.000183783
-0.000284539
0.000381764
-0.000525221
0.000478506
-0.00078721
0.000521202
-0.00106115
0.000545451
-0.00134622
0.000568126
-0.00164396
0.000593809
-0.00195622
0.000623152
-0.00228477
0.000655993
0.000692131
-0.00263126
-9.15992e-05
0.000275383
-0.000282397
0.000572561
-0.000521884
0.000717992
-0.000782827
0.000782145
-0.00105578
0.000818407
-0.00133986
0.000852208
-0.00163656
0.000890502
-0.00194769
0.000934279
-0.00227498
0.000983286
0.00103719
-0.00262004
-9.02846e-05
0.000365667
-0.000279136
0.000761413
-0.000516793
0.000955649
-0.000776123
0.00104147
-0.00104755
0.00108984
-0.00133009
0.00113474
-0.00162516
0.00118558
-0.00193458
0.0012437
-0.00226007
0.00130877
0.00138034
-0.00260322
-8.85238e-05
0.000454191
-0.00027476
0.00094765
-0.000509952
0.00119084
-0.000767103
0.00129863
-0.00103647
0.0013592
-0.00131693
0.0014152
-0.00160985
0.0014785
-0.00191702
0.00155087
-0.00224018
0.00163194
0.00172107
-0.00258092
-8.63215e-05
0.000540512
-0.000269275
0.0011306
-0.000501366
0.00142293
-0.000755779
0.00155304
-0.00102256
0.00162599
-0.00130042
0.00169305
-0.00159067
0.00176875
-0.00189508
0.00185528
-0.00221541
0.00195227
0.00205887
-0.00255321
-8.36842e-05
0.000624197
-0.000262689
0.00130961
-0.000491044
0.00165129
-0.000742161
0.00180416
-0.00100584
0.00188967
-0.0012806
0.00196781
-0.00156767
0.00205583
-0.00186882
0.00215642
-0.00218581
0.00226926
0.0023932
-0.00252014
-8.06198e-05
0.000704816
-0.000255014
0.001484
-0.000478996
0.00187527
-0.000726264
0.00205142
-0.00098634
0.00214975
-0.0012575
0.00223897
-0.0015409
0.00233923
-0.00183829
0.00245381
-0.00215143
0.00258241
0.00272351
-0.00248174
-7.71378e-05
0.000781954
-0.00024626
0.00165312
-0.000465235
0.00209424
-0.000708099
0.00229429
-0.000964067
0.00240571
-0.00123114
0.00250604
-0.00151039
0.00261849
-0.00180352
0.00274694
-0.0021123
0.00289118
0.00304925
-0.00243805
-7.3249e-05
0.000855203
-0.000236443
0.00181632
-0.000449772
0.00230757
-0.000687678
0.00253219
-0.000939041
0.00265708
-0.00120155
0.00276855
-0.00147617
0.0028931
-0.00176455
0.00303532
-0.00206846
0.00319509
0.0033699
-0.00238911
-6.89659e-05
0.000924169
-0.000225578
0.00197293
-0.000432619
0.00251461
-0.000665013
0.00276459
-0.000911277
0.00290334
-0.00116876
0.00302603
-0.00143826
0.00316261
-0.00172142
0.00331848
-0.00201996
0.00349363
0.00368494
-0.002335
-6.43024e-05
0.000988471
-0.000213684
0.00212231
-0.00041379
0.00271472
-0.000640114
0.00299091
-0.000880788
0.00314402
-0.00113276
0.00327801
-0.00139669
0.00342653
-0.00167414
0.00359593
-0.00196685
0.00378634
0.00399388
-0.0022758
-5.92744e-05
0.00104775
-0.000200782
0.00226382
-0.000393302
0.00290724
-0.000612993
0.0032106
-0.000847587
0.00337861
-0.0010936
0.00352402
-0.00135148
0.00368441
-0.00162276
0.00386721
-0.00190919
0.00407278
0.00429631
-0.00221162
-5.39e-05
0.00110165
-0.000186894
0.00239681
-0.00037117
0.00309151
-0.000583661
0.00342309
-0.000811687
0.00360664
-0.00105127
0.0037636
-0.00130265
0.00393579
-0.00156729
0.00413185
-0.00184704
0.00435253
0.00459189
-0.00214261
-4.81993e-05
0.00114984
-0.00017205
0.00252067
-0.000347417
0.00326688
-0.000552131
0.00362781
-0.000773098
0.0038276
-0.00100581
0.00399632
-0.00125022
0.0041802
-0.00150775
0.00438938
-0.00178043
0.00462521
0.00488039
-0.00206894
-4.21952e-05
0.00119204
-0.00015628
0.00263475
-0.000322065
0.00343267
-0.000518417
0.00382416
-0.000731835
0.00404102
-0.000957232
0.00422171
-0.00119424
0.00441721
-0.00144415
0.00463929
-0.00170938
0.00489043
0.00516185
-0.00199083
-3.59131e-05
0.00122795
-0.000139623
0.00273846
-0.000295144
0.00358819
-0.000482538
0.00401155
-0.000687911
0.0042464
-0.000905552
0.00443935
-0.00113473
0.00464639
-0.00137645
0.00488101
-0.00163368
0.00514765
0.00543671
-0.00190854
-2.93817e-05
0.00125733
-0.000122124
0.0028312
-0.000266686
0.00373275
-0.000444516
0.00418938
-0.000641347
0.00444323
-0.0008508
0.00464881
-0.0010718
0.0048674
-0.00130486
0.00511407
-0.00155329
0.00539608
0.00570609
-0.00182268
-2.26334e-05
0.00127997
-0.000103835
0.0029124
-0.000236731
0.00386565
-0.000404378
0.00435703
-0.000592161
0.00463101
-0.000792954
0.0048496
-0.00100534
0.00507978
-0.00122906
0.00533779
-0.00146601
0.00563303
0.0059729
-0.00173282
-1.57086e-05
0.00129568
-8.48128e-05
0.00298151
-0.000205323
0.00398616
-0.000362162
0.00451387
-0.0005404
0.00480925
-0.000732102
0.0050413
-0.000935676
0.00528336
-0.00115139
0.0055535
-0.00137679
0.00585843
0.00624162
-0.00164551
-8.67489e-06
0.00130435
-6.51111e-05
0.00303794
-0.000172512
0.00409356
-0.000317912
0.00465927
-0.000486101
0.00497744
-0.00066825
0.00522345
-0.000862141
0.00547725
-0.00106887
0.00576024
-0.00128916
0.00607872
0.00645897
-0.00150651
-1.79637e-06
0.00130615
-4.47376e-05
0.00308089
-0.000138356
0.00418717
-0.000271685
0.0047926
-0.000429296
0.00513505
-0.000601466
0.00539562
-0.000785072
0.00566085
-0.000980689
0.00595585
-0.00118818
0.00628621
0.00667728
-0.00140649
5.80899e-06
0.00130034
-2.3531e-05
0.00311023
-0.000102943
0.00426659
-0.000223559
0.00491321
-0.000370053
0.00528154
-0.000531887
0.00555745
-0.000705033
0.005834
-0.000889775
0.00614059
-0.00108765
0.00648408
0.00688592
-0.00129629
1.31598e-05
0.00128718
1.03508e-08
0.00312338
-6.64415e-05
0.00433304
-0.000173591
0.00502036
-0.000308459
0.00541641
-0.000459641
0.00570864
-0.00062227
0.00599663
-0.000796287
0.00631461
-0.000983356
0.00667115
0.00708322
-0.00118065
1.98952e-05
0.00126728
1.91531e-05
0.00312412
-2.90951e-05
0.00438129
-0.000121889
0.00511316
-0.000244631
0.00553915
-0.000384796
0.0058488
-0.000536715
0.00614855
-0.000699845
0.00647774
-0.000875632
0.00684694
0.00726897
-0.00106139
2.65035e-05
0.00124078
4.03314e-05
0.00311029
9.81744e-06
0.0044118
-6.87347e-05
0.00519171
-0.000178663
0.00564908
-0.000307392
0.00597753
-0.000448322
0.00628948
-0.000600305
0.00662972
-0.000764552
0.00701119
0.00744337
-0.000938952
3.30328e-05
0.00120775
6.15921e-05
0.00308173
4.75062e-05
0.00442589
-1.41306e-05
0.00525335
-0.000110623
0.00574557
-0.000227493
0.0060944
-0.000357129
0.00641911
-0.0004977
0.0067703
-0.000650079
0.00716356
0.00760591
-0.000812619
3.92794e-05
0.00116847
8.27252e-05
0.00303828
8.65478e-05
0.00442206
4.14864e-05
0.00529841
-4.06975e-05
0.00582776
-0.000145187
0.00619889
-0.000263207
0.00653713
-0.000392099
0.00689919
-0.000532328
0.00730379
0.00775589
-0.000682306
4.5148e-05
0.00112332
0.000103544
0.00297989
0.000125881
0.00439973
9.83359e-05
0.00532595
3.10995e-05
0.00589499
-6.06007e-05
0.00629059
-0.00016665
0.00664318
-0.000283566
0.0070161
-0.000411452
0.00743168
0.00789283
-0.000548387
5.05558e-05
0.00107276
0.000123778
0.00290667
0.000165171
0.00435833
0.000156098
0.00533503
0.000104603
0.00594649
2.61784e-05
0.00636901
-6.76298e-05
0.00673699
-0.000172192
0.00712067
-0.000287585
0.00754707
0.00801647
-0.000411225
5.54149e-05
0.00101735
0.000143155
0.00281893
0.000204089
0.0042974
0.000214404
0.00532471
0.000179581
0.00598131
0.000115282
0.00643331
3.384e-05
0.00681843
-5.8342e-05
0.00721285
-0.000160678
0.00764941
0.00812696
-0.000271177
5.96422e-05
0.000957708
0.000161399
0.00271717
0.000242249
0.00421655
0.000272898
0.00529406
0.000255735
0.00599847
0.000206202
0.00648285
0.000138026
0.00688661
5.83461e-05
0.00729253
-2.95437e-05
0.0077373
0.00822656
-0.000129143
6.3164e-05
0.000894544
0.000178229
0.0026021
0.000279213
0.00411557
0.000331147
0.00524213
0.000332733
0.00599689
0.000298782
0.0065168
0.000244167
0.00694122
0.000177544
0.00735915
0.000101322
0.00781352
0.00831535
1.25393e-05
6.59177e-05
0.000828626
0.000193353
0.00247467
0.000314496
0.00399442
0.000388642
0.00516798
0.000410163
0.00597537
0.000392735
0.00653423
0.000352228
0.00698173
0.000298749
0.00741263
0.000236495
0.00787577
0.00838469
0.000167152
6.78538e-05
0.000760772
0.000206459
0.00233606
0.000347566
0.00385332
0.000444787
0.00507076
0.000487521
0.00593263
0.000487711
0.00653404
0.000462021
0.00700742
0.000422203
0.00745245
0.000373983
0.00792399
0.00843953
0.000319139
6.89418e-05
0.00069183
0.000217269
0.00218774
0.000377849
0.00369274
0.000498894
0.00494971
0.000564201
0.00586733
0.000583268
0.00651497
0.000573225
0.00701746
0.000547469
0.0074782
0.000513044
0.00795842
0.00848014
0.000472441
6.91708e-05
0.00062266
0.00022553
0.00203138
0.000404737
0.00351353
0.00055018
0.00480427
0.000639469
0.00577804
0.000678845
0.00647559
0.000685417
0.00701089
0.000674155
0.00748947
0.000653602
0.00797897
0.00850657
0.000627169
6.85499e-05
0.00055411
0.000231026
0.0018689
0.000427603
0.00331695
0.000597765
0.00463411
0.000712454
0.00566335
0.000773754
0.00641429
0.000798119
0.00698653
0.000801948
0.00748564
0.000795498
0.00798542
0.00851889
0.000783177
6.71102e-05
0.000486999
0.000233601
0.00170241
0.000445824
0.00310473
0.000640676
0.00443926
0.000782137
0.00552189
0.000867161
0.00632927
0.000910762
0.00694293
0.000930496
0.0074659
0.000938487
0.00797743
0.00851707
0.000940311
6.49047e-05
0.000422095
0.000233172
0.00153414
0.000458816
0.00287909
0.00067787
0.0042202
0.000847337
0.00535242
0.000958048
0.00621856
0.00102263
0.00687835
0.00105935
0.00742919
0.00108227
0.00795451
0.00850095
0.00109838
6.20072e-05
0.000360087
0.000229748
0.0013664
0.000466076
0.00264276
0.00070826
0.00397802
0.000906713
0.00515397
0.00104519
0.00608008
0.00113281
0.00679073
0.00118791
0.00737408
0.00122647
0.00791596
0.00847028
0.00125713
5.85111e-05
0.000301576
0.000223438
0.00120148
0.000467233
0.00239896
0.000730762
0.00371449
0.000958767
0.00492596
0.00112712
0.00591173
0.00124016
0.00667769
0.00131543
0.00729881
0.00137061
0.00786078
0.00842462
0.00141627
5.45241e-05
0.000247052
0.000214455
0.00104154
0.000462097
0.00215132
0.000744362
0.00343223
0.00100188
0.00466844
0.0012021
0.00571151
0.00134324
0.00653655
0.00144092
0.00720113
0.00151407
0.00778763
0.00836331
0.00157538
5.01646e-05
0.000196888
0.00020311
0.000888599
0.000450711
0.00190372
0.0007482
0.00313474
0.00103437
0.00438228
0.00126817
0.00547771
0.00144031
0.00636441
0.0015631
0.00707834
0.00165605
0.00769468
0.00828542
0.00173394
4.55559e-05
0.000151332
0.000189796
0.000744359
0.000433383
0.00166013
0.000741679
0.00282644
0.00105455
0.0040694
0.00132308
0.00520918
0.00152922
0.00615828
0.00168032
0.00692724
0.00179545
0.00757955
0.00818961
0.00189126
4.08202e-05
0.000110512
0.000174963
0.000610216
0.000410692
0.0014244
0.000724581
0.00251255
0.00106092
0.00373306
0.00136446
0.00490564
0.00160743
0.0059153
0.0017905
0.00674417
0.00193084
0.00743921
0.00807398
0.00204647
3.60732e-05
7.44383e-05
0.000159095
0.000487194
0.000383469
0.00120003
0.000697169
0.00219885
0.00105228
0.00337795
0.00138982
0.0045681
0.00167204
0.00563309
0.00189101
0.00652519
0.00206029
0.00726994
0.00793593
0.00219834
3.14199e-05
4.30184e-05
0.000142676
0.000375938
0.000352737
0.00098997
0.000660253
0.00189134
0.00102797
0.00301023
0.00139683
0.00419924
0.00171977
0.00531015
0.00197866
0.0062663
0.00218128
0.00706732
0.00777197
0.00234523
2.69507e-05
1.60677e-05
0.000126163
0.000276726
0.000319636
0.000796497
0.000615193
0.00159578
0.000988078
0.00263734
0.00138352
0.0038038
0.00174719
0.00494648
0.00204964
0.00596386
0.00229057
0.00682639
0.00757763
0.00248491
2.27397e-05
-6.67205e-06
0.000109969
0.000189496
0.000285326
0.00062114
0.000563814
0.00131729
0.000933609
0.00226755
0.00134866
0.00338875
0.00175094
0.0045442
0.00209961
0.00561519
0.00238405
0.00654195
0.00734735
0.00261434
1.8844e-05
-2.55161e-05
9.4446e-05
0.000113894
0.00025091
0.000464677
0.000508239
0.00105996
0.000866571
0.00190922
0.00129212
0.0029632
0.00172815
0.00410817
0.00212393
0.00521941
0.00245677
0.0062091
0.00707456
0.00272956
1.53043e-05
-4.08204e-05
7.98755e-05
4.93227e-05
0.000217359
0.000327193
0.000450684
0.000826637
0.000789848
0.00157005
0.00121521
0.00253783
0.00167694
0.00364644
0.00211796
0.00477839
0.00250294
1.21465e-05
-5.29669e-05
6.647e-05
-5.00082e-06
0.000185477
0.000208187
0.000393246
0.000618867
0.000706929
0.00125637
0.00112087
0.00212389
0.00159712
0.00317019
0.00429771
9.38244e-06
-6.23493e-05
5.43722e-05
-4.99905e-05
0.000155877
0.000106682
0.00033774
0.000437004
0.000621494
0.000972614
0.00101347
0.00173192
0.00149068
0.00269298
7.01144e-06
-6.93608e-05
4.36591e-05
-8.66382e-05
0.00012898
2.13611e-05
0.000285595
0.000280389
0.000536985
0.000721225
0.000898349
0.00137055
5.0208e-06
-7.43816e-05
3.43461e-05
-0.000115963
0.00010502
-4.93131e-05
0.000237815
0.000147594
0.000456272
0.000502767
3.38635e-06
-7.77679e-05
2.63914e-05
-0.000138968
8.40597e-05
-0.000106981
0.000194978
3.66763e-05
2.07351e-06
-7.98414e-05
1.97034e-05
-0.000156598
6.60074e-05
-0.000153285
-5.45929e-05
1.03988e-06
-8.08813e-05
1.41493e-05
-0.000169708
5.06481e-05
-0.000189784
2.44732e-07
-8.1126e-05
9.56805e-06
-0.000179031
-4.15355e-07
-8.07107e-05
-0.000185229
-9.05877e-07
-7.98048e-05
-7.84907e-05
0.00674366
0.00120408
-0.00669232
0.00679337
0.00136474
0.00684118
0.00152565
0.00688673
0.00168637
0.00692946
0.00184644
0.00696847
0.00200529
0.00700241
0.00216217
0.00702927
0.00231613
0.00704609
0.00246585
0.00704874
0.00260955
0.00274479
0.00691224
0.00115223
-0.00686038
0.00696347
0.00131351
0.00701395
0.00147516
0.0070635
0.00163683
0.00711181
0.00179814
0.00715841
0.00195869
0.00720259
0.00211798
0.0072433
0.00227542
0.00727894
0.00243022
0.00730716
0.00258133
0.00272729
0.00708891
0.00110206
-0.00703874
0.00713943
0.00126299
0.00719027
0.00142432
0.00724134
0.00158576
0.00729249
0.00174699
0.0073435
0.00190769
0.00739399
0.00206749
0.00744344
0.00222597
0.00749106
0.00238259
0.00753569
0.0025367
0.00268737
0.00727769
0.00105405
-0.00722968
0.00732659
0.00121409
0.00737646
0.00137446
0.00742732
0.00153489
0.00747918
0.00169513
0.00753197
0.00185489
0.00758559
0.00201387
0.00763982
0.00217174
0.00769429
0.00232812
0.00774843
0.00248256
0.00263452
0.00747924
0.00100811
-0.00743329
0.00752642
0.0011669
0.00757494
0.00132594
0.00762488
0.00148495
0.00767631
0.00164371
0.00772926
0.00180193
0.00778375
0.00195938
0.00783971
0.00211578
0.00789698
0.00227085
0.00795527
0.00242427
0.00257576
0.00769178
0.000963881
-0.00764756
0.0077375
0.00112118
0.00778481
0.00127863
0.00783376
0.001436
0.00788445
0.00159302
0.00793692
0.00174946
0.00799122
0.00190508
0.00804736
0.00205964
0.00810531
0.00221291
0.00816499
0.00236459
0.00251453
0.00791446
0.000921203
-0.00787178
0.00795888
0.00107676
0.00800509
0.00123242
0.00805316
0.00138793
0.00810313
0.00154305
0.00815506
0.00169753
0.008209
0.00185115
0.00826498
0.00200365
0.00832307
0.00215482
0.00838329
0.00230437
0.00245217
0.00814651
0.000879899
-0.00810521
0.00818976
0.00103351
0.00823501
0.00118717
0.00828231
0.00134063
0.00833169
0.00149367
0.0083832
0.00164602
0.00843688
0.00179747
0.00849277
0.00194776
0.00855092
0.00209668
0.00861134
0.00224395
0.00238944
0.00838804
0.000839964
-0.00834811
0.00843014
0.000991408
0.00847445
0.00114286
0.00852099
0.00129409
0.00856981
0.00144485
0.00862093
0.0015949
0.00867437
0.00174403
0.00873015
0.00189198
0.00878827
0.00203855
0.00884874
0.00218348
0.0023266
0.00863858
0.000801315
-0.00859993
0.0086796
0.000950395
0.008723
0.00109945
0.00876884
0.00124826
0.00881711
0.00139657
0.00886784
0.00154417
0.00892104
0.00169083
0.00897671
0.00183632
0.00903485
0.00198041
0.00909546
0.00212286
0.00226349
0.00889811
0.000763896
-0.00886069
0.00893808
0.00091043
0.00898062
0.00105692
0.00902574
0.00120313
0.00907348
0.00134884
0.00912383
0.00149382
0.0091768
0.00163786
0.00923239
0.00178073
0.0092906
0.0019222
0.00935142
0.00206205