/*--------------------------------*- C++ -*----------------------------------*\
  =========                 |
  \\      /  F ield         | OpenFOAM: The Open Source CFD Toolbox
   \\    /   O peration     | Website:  https://openfoam.org
    \\  /    A nd           | Version:  7
     \\/     M anipulation  |
\*---------------------------------------------------------------------------*/
FoamFile
{
    version     2.0;
    format      ascii;
    class       volVectorField;
    location    "40";
    object      U;
}
// * * * * * * * * * * * * * * * * * * * * * * * * * * * * * * * * * * * * * //

dimensions      [0 1 -1 0 0 0 0];

internalField   nonuniform List<vector> 
6386
(
(-0.0131819 0.0181159 6.12366e-20)
(-0.0141639 0.0179618 1.38115e-19)
(-0.0150955 0.017675 6.27194e-20)
(-0.0159581 0.0172594 -3.00521e-19)
(-0.0338787 0.037845 1.86802e-19)
(-0.0167235 0.0167146 9.99022e-21)
(-0.0339707 0.0358458 -1.87505e-19)
(-0.0173508 0.0160357 -2.3503e-20)
(-0.0333286 0.0334634 2.20734e-19)
(-0.0310987 0.041671 -2.24816e-20)
(-0.0177885 0.015218 -1.42483e-19)
(-0.0317631 0.0307139 2.01556e-19)
(-0.0244828 0.0374917 -1.1648e-19)
(0.00521476 0.0387434 1.62021e-19)
(-0.0179731 0.0142532 2.6467e-19)
(-0.0290553 0.0276172 -2.85076e-19)
(-0.0154494 0.0329964 -6.52786e-20)
(0.024101 0.0337805 -3.03395e-19)
(-0.0178235 0.0131305 -5.3899e-20)
(-0.024958 0.0242036 8.96796e-21)
(-0.00357172 0.028314 -1.5686e-19)
(0.047651 0.0290171 -5.10339e-20)
(0.131229 0.0302054 2.21216e-19)
(-0.0172437 0.0118426 3.02557e-19)
(-0.0191988 0.0205174 -1.63058e-19)
(0.0115904 0.0236004 1.6258e-19)
(0.0764175 0.024761 5.6763e-20)
(0.17769 0.0282689 -8.35754e-20)
(0.31608 0.0376086 -3.96605e-20)
(-0.016125 0.0103884 -1.61127e-19)
(-0.011488 0.0166234 3.89796e-19)
(0.03047 0.0190448 -1.09576e-19)
(0.110869 0.0213586 2.72893e-20)
(0.231518 0.0281772 5.01255e-19)
(0.390635 0.0429563 -2.20064e-19)
(0.577979 0.0674096 -1.98741e-19)
(-0.0143479 0.00877659 7.31954e-20)
(-0.00152813 0.0126136 3.68588e-20)
(0.053469 0.0148744 4.50527e-20)
(0.151336 0.0191921 -7.64563e-20)
(0.292545 0.0304155 -8.9243e-20)
(0.471381 0.0515625 -3.42905e-19)
(0.670728 0.0823439 4.58142e-20)
(0.863564 0.115702 5.71988e-20)
(-0.0117864 0.00702956 -5.95574e-20)
(0.010973 0.00861393 -4.95268e-19)
(0.0809306 0.0113595 3.36507e-19)
(0.197962 0.0186735 1.53481e-19)
(0.360165 0.0354196 -2.38463e-19)
(0.556256 0.0635294 -3.65261e-20)
(0.761762 0.0999716 2.69493e-19)
(0.946472 0.13593 4.44464e-19)
(1.08863 0.167605 1.17983e-20)
(-0.00831137 0.00518569 -9.06831e-20)
(0.0262887 0.00478877 1.77506e-19)
(0.113108 0.0088138 -4.38762e-19)
(0.250638 0.0202297 -1.56069e-19)
(0.433285 0.0435229 1.62739e-19)
(0.642737 0.0786902 8.7026e-20)
(0.84799 0.119561 -3.09014e-19)
(1.01901 0.156256 -2.15941e-19)
(1.14028 0.184867 -2.67147e-19)
(1.21205 0.195883 1.54461e-19)
(-0.00379582 0.0033015 3.47474e-20)
(0.0446569 0.00134305 3.26196e-19)
(0.150133 0.00758986 1.61279e-19)
(0.308965 0.0242757 1.74781e-19)
(0.510354 0.0548987 -6.03092e-20)
(0.728147 0.0966392 2.87268e-19)
(0.927003 0.140353 -2.48686e-20)
(1.08047 0.176123 1.56185e-19)
(1.1806 0.200905 2.95039e-19)
(1.23491 0.208857 -1.31993e-19)
(0.00188018 0.00145248 -1.02166e-19)
(0.0662625 -0.00147886 -1.98968e-19)
(0.191982 0.00806798 -1.29508e-19)
(0.372218 0.0311756 1.25508e-19)
(0.589477 0.0695243 2.53626e-20)
(0.809998 0.116821 -2.466e-19)
(0.997249 0.161685 5.57628e-20)
(1.131 0.195183 6.84152e-20)
(1.21099 0.215687 4.06779e-20)
(1.2501 0.220526 4.87477e-20)
(0.00882347 -0.000266967 6.83421e-20)
(0.0912192 -0.00339771 1.82886e-19)
(0.238445 0.010638 1.77148e-19)
(0.439356 0.0411992 -2.18803e-19)
(0.668596 0.0871855 -1.55624e-19)
(0.886254 0.138639 9.16568e-20)
(1.058 0.183046 1.48519e-19)
(1.17136 0.213267 -3.69892e-20)
(1.23301 0.229311 -1.49319e-19)
(1.2594 0.23119 -3.86023e-20)
(0.0171213 -0.00174475 4.43778e-20)
(0.119552 -0.00410766 -7.70217e-21)
(0.289112 0.015674 -8.25977e-20)
(0.509066 0.0544848 -1.28246e-20)
(0.745707 0.107523 -1.39041e-20)
(0.955472 0.161536 1.17454e-19)
(1.10919 0.204086 -1.85079e-19)
(1.20263 0.230341 -1.12925e-19)
(1.24819 0.241947 -3.10119e-21)
(1.26425 0.241126 7.17919e-20)
(0.0268351 -0.00285343 2.13376e-19)
(0.15118 -0.0032877 -3.91908e-20)
(0.343359 0.0235056 -6.63121e-20)
(0.57986 0.0710228 -1.10646e-20)
(0.819047 0.130099 -3.09284e-20)
(1.0168 0.185046 -1.29794e-19)
(1.15124 0.22459 7.88152e-20)
(1.22602 0.24646 -1.06917e-19)
(1.25785 0.253787 6.69395e-20)
(1.26575 0.250566 1.78378e-19)
(0.0379937 -0.00345347 -9.22304e-20)
(0.185906 -0.000616194 -1.92782e-19)
(0.400371 0.0343877 -2.47106e-20)
(0.650195 0.0906651 2.26156e-19)
(0.887212 0.154457 6.94633e-20)
(1.0699 0.208806 1.50224e-19)
(1.18487 0.244455 2.40495e-19)
(1.24273 0.261728 5.14711e-20)
(1.26315 0.265023 5.08716e-20)
(1.26471 0.259694 -1.31338e-19)
(0.0505883 -0.00339751 8.6628e-21)
(0.223413 0.00421237 1.32366e-19)
(0.459173 0.0484776 1.36883e-19)
(0.718591 0.113155 -1.45868e-19)
(0.949197 0.180169 1.80223e-19)
(1.11482 0.232546 -1.53907e-19)
(1.21091 0.263649 -3.30588e-20)
(1.25384 0.276276 -4.87882e-20)
(1.26498 0.275823 -4.90861e-20)
(1.26174 0.26864 -6.71364e-20)
(0.0645674 -0.00253546 -8.45057e-21)
(0.263262 0.0114693 -1.34941e-20)
(0.518685 0.0658219 -1.03038e-20)
(0.783733 0.138163 -8.34859e-21)
(1.00437 0.20685 3.7647e-20)
(1.15189 0.256078 4.04611e-20)
(1.23026 0.282192 -4.11769e-20)
(1.26033 0.290234 -2.78352e-20)
(1.26406 0.286327 -2.97864e-20)
(1.25722 0.277492 8.77412e-20)
(0.0798341 -0.000720454 -1.38212e-20)
(0.304903 0.0213743 3.66343e-20)
(0.577786 0.0863566 5.71451e-20)
(0.844527 0.165324 -1.75432e-20)
(1.05244 0.234169 -1.24071e-19)
(1.18162 0.279272 -9.37179e-20)
(1.24378 0.300126 -2.90278e-21)
(1.26297 0.303718 6.55969e-20)
(1.26093 0.296636 -9.76153e-21)
(1.25144 0.286296 -2.40189e-20)
(0.0962456 0.00218475 -3.79714e-20)
(0.347696 0.0340796 2.04676e-20)
(0.635378 0.109918 -2.17124e-20)
(0.900127 0.194259 4.65028e-21)
(1.09336 0.261843 1.48306e-20)
(1.20458 0.302043 2.06196e-20)
(1.25223 0.317503 -3.30807e-21)
(1.26242 0.316822 -3.86209e-20)
(1.25597 0.306816 2.34586e-21)
(1.24457 0.295065 1.08776e-20)
(0.113614 0.00630109 -1.26937e-20)
(0.390932 0.0496595 5.4702e-23)
(0.690438 0.136257 3.10339e-21)
(0.949931 0.224593 -3.00129e-21)
(1.12725 0.289632 2.01217e-20)
(1.22137 0.324331 6.63585e-21)
(1.25632 0.334372 3.63484e-21)
(1.25919 0.329614 -1.36939e-21)
(1.24944 0.316899 -5.28766e-21)
(1.23673 0.303785 -1.03839e-20)
(0.131713 0.0117267 -6.08512e-21)
(0.433865 0.0681039 -1.8278e-20)
(0.742062 0.165063 1.36024e-20)
(0.99355 0.255963 -1.43243e-21)
(1.15438 0.317326 1.22216e-20)
(1.23261 0.346091 1.06837e-20)
(1.25661 0.350768 7.80752e-21)
(1.25366 0.342134 -5.89885e-21)
(1.24155 0.326885 -5.54923e-21)
(1.22798 0.312424 -7.82543e-21)
(0.150277 0.0185308 -2.18143e-20)
(0.475745 0.0893178 -2.13595e-20)
(0.789486 0.195976 -1.32663e-20)
(1.03078 0.288018 -1.23616e-20)
(1.1751 0.34474 2.53979e-20)
(1.23883 0.367281 3.38414e-20)
(1.25359 0.366707 -4.40111e-21)
(1.24612 0.354391 -2.77276e-20)
(1.23241 0.336751 -4.39014e-21)
(1.21836 0.320936 -2.86161e-21)
(0.169017 0.0267493 -2.50498e-20)
(0.515839 0.113125 1.16041e-20)
(0.8321 0.228604 3.21757e-20)
(1.06157 0.320425 1.16516e-20)
(1.18979 0.371706 -1.55686e-19)
(1.24054 0.387855 -1.83409e-20)
(1.24765 0.382186 -1.87348e-20)
(1.2368 0.36637 4.76962e-20)
(1.22211 0.346448 -1.62473e-20)
(1.20791 0.329261 -6.23331e-21)
(0.187625 0.0363807 2.43357e-20)
(0.553468 0.139277 -5.49333e-20)
(0.869439 0.262534 -9.83806e-20)
(1.08597 0.352866 2.84956e-20)
(1.19884 0.398064 7.44747e-20)
(1.23818 0.407761 1.41641e-20)
(1.2391 0.39718 9.66808e-21)
(1.22584 0.378031 -1.92888e-20)
(1.2107 0.355909 -2.00677e-20)
(1.19664 0.337333 4.06462e-20)
(0.205784 0.0473852 5.29529e-20)
(0.588017 0.167461 2.34487e-19)
(0.901182 0.297345 3.58056e-20)
(1.10414 0.385033 -1.37704e-19)
(1.20265 0.42366 7.08025e-20)
(1.23216 0.426933 -7.62339e-21)
(1.2282 0.411643 -9.46719e-20)
(1.21335 0.38931 8.64813e-21)
(1.19822 0.365044 -1.38678e-20)
(1.18455 0.345074 -3.07829e-20)
(0.223179 0.0596838 -2.22125e-19)
(0.618958 0.197314 -2.48168e-19)
(0.927131 0.33261 -3.94381e-20)
(1.11628 0.416632 3.4191e-19)
(1.20162 0.448344 -1.45248e-20)
(1.2228 0.445298 1.7819e-19)
(1.21515 0.425513 1.05743e-19)
(1.19943 0.400131 7.41938e-20)
(1.18465 0.373759 1.4409e-20)
(1.17155 0.35241 -2.62361e-20)
(0.239503 0.0731605 2.08588e-19)
(0.645852 0.228431 -2.05877e-19)
(0.947204 0.367904 1.24762e-19)
(1.12264 0.44738 -1.27225e-19)
(1.1961 0.471963 2.61232e-20)
(1.21041 0.462766 -1.26625e-19)
(1.20013 0.438716 5.48009e-21)
(1.18413 0.410418 -1.00754e-20)
(1.16999 0.381986 1.24304e-20)
(1.15745 0.359256 4.38621e-20)
(0.25447 0.0876648 1.63919e-20)
(0.668359 0.260379 6.4726e-20)
(0.961412 0.402809 -9.09165e-20)
(1.12354 0.477005 -3.50841e-20)
(1.18645 0.494362 -5.91791e-20)
(1.19525 0.479237 1.07936e-19)
(1.18328 0.451161 -1.18412e-19)
(1.16754 0.420097 -2.92543e-20)
(1.15427 0.389737 8.92084e-21)
(1.14214 0.365506 -1.32413e-20)
(0.26782 0.103016 2.87264e-20)
(0.686238 0.292707 1.10894e-19)
(0.969847 0.436918 3.9246e-19)
(1.11926 0.505246 -2.73171e-19)
(1.173 0.515387 -1.11611e-19)
(1.17755 0.494599 -4.89103e-20)
(1.16471 0.462736 1.06657e-19)
(1.14971 0.429062 3.13344e-20)
(1.13756 0.397035 -2.58086e-20)
(1.1261 0.371107 -8.13078e-21)
(0.279327 0.119009 -8.38649e-20)
(0.699344 0.324961 -1.79085e-19)
(0.972668 0.469836 -2.89022e-19)
(1.11015 0.531851 2.15633e-19)
(1.15606 0.534882 6.59484e-21)
(1.15751 0.508735 -1.04878e-19)
(1.14456 0.473327 2.62499e-20)
(1.13073 0.43718 1.47984e-21)
(1.11982 0.403619 1.89518e-20)
(1.1096 0.376119 1.09801e-21)
(0.288803 0.135414 -4.54985e-20)
(0.707618 0.356688 2.99409e-19)
(0.970089 0.501187 3.23781e-19)
(1.09653 0.55658 6.82824e-20)
(1.13593 0.552695 -4.00192e-20)
(1.13535 0.521517 1.88112e-19)
(1.12295 0.482818 -5.99036e-20)
(1.11064 0.444387 1.24502e-20)
(1.10108 0.409344 -1.37811e-21)
(1.09247 0.380363 -1.0318e-20)
(0.296099 0.151992 -1.77884e-19)
(0.71108 0.387449 8.48256e-20)
(0.962375 0.530615 -2.58705e-19)
(1.07876 0.579206 -1.04136e-19)
(1.11291 0.568671 4.69941e-20)
(1.11126 0.532815 -1.60994e-20)
(1.10002 0.491088 -5.20569e-20)
(1.08949 0.450571 3.61705e-21)
(1.08149 0.414128 1.84056e-20)
(1.0747 0.383731 4.2979e-20)
(0.301113 0.168493 -1.23357e-19)
(0.709825 0.416821 -3.28474e-19)
(0.949847 0.557792 2.27372e-19)
(1.05719 0.599513 6.12362e-21)
(1.08725 0.582653 3.39974e-20)
(1.08543 0.542497 -8.37285e-20)
(1.07584 0.498018 2.08649e-20)
(1.06736 0.455621 -2.83882e-20)
(1.06112 0.417877 -1.31153e-20)
(1.05631 0.386141 6.39184e-20)
(0.303782 0.184665 1.36684e-19)
(0.704025 0.4444 3.00085e-20)
(0.932885 0.582433 -1.93764e-19)
(1.03213 0.617294 4.05916e-20)
(1.05923 0.594489 -2.51043e-20)
(1.05803 0.550426 -2.51542e-20)
(1.05056 0.503492 -3.33115e-20)
(1.04436 0.459433 9.02873e-20)
(1.04003 0.420495 1.50698e-20)
(1.03739 0.387518 -1.85093e-19)
(0.304095 0.200256 -1.08134e-19)
(0.693934 0.469798 3.72447e-19)
(0.911841 0.604283 -1.84156e-19)
(1.00385 0.632353 1.20689e-19)
(1.02913 0.604028 5.02115e-20)
(1.02926 0.556474 1.86288e-20)
(1.02428 0.507396 1.74884e-20)
(1.02059 0.461905 3.53102e-20)
(1.01832 0.421881 -1.35758e-19)
(1.01803 0.387768 5.25217e-20)
(0.302102 0.215032 7.24315e-20)
(0.679881 0.492697 -1.11316e-19)
(0.886851 0.622992 1.6912e-19)
(0.972781 0.644581 -6.14989e-20)
(0.997254 0.611119 -3.71728e-20)
(0.99931 0.560528 -8.74466e-20)
(0.997174 0.509629 5.45866e-20)
(0.996148 0.462951 -1.55402e-20)
(0.996074 0.421941 1.11366e-20)
(0.998297 0.3868 2.33952e-20)
(0.297903 0.22875 -7.36049e-20)
(0.662172 0.512968 -3.67378e-20)
(0.858147 0.638227 -4.60246e-20)
(0.939385 0.653742 -2.77617e-20)
(0.963861 0.615681 6.82925e-20)
(0.968363 0.562484 1.73857e-19)
(0.969365 0.510094 -8.21752e-20)
(0.971155 0.462492 -1.50616e-19)
(0.973424 0.420609 3.73087e-19)
(0.978473 0.384572 1.58973e-19)
(0.291586 0.241065 8.4885e-20)
(0.6409 0.530271 -1.01514e-19)
(0.826517 0.650145 -2.31369e-20)
(0.904057 0.659632 3.23804e-20)
(0.929219 0.617603 -1.00742e-19)
(0.936614 0.562246 -2.28499e-19)
(0.940984 0.508693 2.08457e-20)
(0.945706 0.460424 -1.77356e-20)
(0.950638 0.417807 -1.29028e-19)
(0.959246 0.381115 -2.92162e-19)
(0.283159 0.251754 -8.23135e-21)
(0.616293 0.544056 2.52362e-20)
(0.792483 0.658493 9.71352e-21)
(0.867076 0.66227 -1.85421e-20)
(0.893582 0.616805 1.50623e-19)
(0.904242 0.559734 1.36057e-19)
(0.912134 0.505332 3.19303e-19)
(0.919902 0.456586 7.64847e-20)
(0.928098 0.413292 -1.81943e-19)
(0.941283 0.376414 8.37068e-21)
(0.272852 0.26066 4.12766e-21)
(0.588962 0.554218 -2.25022e-20)
(0.756335 0.66306 -3.28208e-20)
(0.82878 0.661578 4.47372e-20)
(0.857209 0.613226 5.96363e-20)
(0.871425 0.554893 -1.8877e-20)
(0.882926 0.499959 -4.78637e-19)
(0.893898 0.450856 5.0076e-20)
(0.906053 0.406612 1.39183e-20)
(0.923744 0.369588 8.67062e-20)
(0.260886 0.267707 -4.54551e-23)
(0.559324 0.560637 2.29332e-20)
(0.718484 0.663707 -1.5526e-19)
(0.789517 0.657492 5.82759e-20)
(0.820364 0.606823 -1.11389e-20)
(0.838354 0.547694 -3.42975e-19)
(0.853533 0.492584 3.37077e-19)
(0.867917 0.443377 -2.81601e-19)
(0.88437 0.397984 3.03617e-19)
(0.903823 0.356804 -1.62344e-19)
(0.247431 0.272729 1.00692e-19)
(0.52781 0.563204 1.07751e-19)
(0.679355 0.660368 2.49558e-19)
(0.749634 0.649972 1.80357e-19)
(0.78331 0.597567 3.36656e-20)
(0.805242 0.538109 1.09146e-20)
(0.824204 0.483184 -1.93356e-19)
(0.84218 0.434292 4.7017e-20)
(0.862036 0.389471 -2.96129e-19)
(0.880835 0.349879 3.83503e-19)
(0.232708 0.275603 -4.27596e-20)
(0.494849 0.561839 -8.47226e-20)
(0.639371 0.653017 -3.64497e-19)
(0.709478 0.639003 -1.87042e-19)
(0.746313 0.585448 -1.75162e-20)
(0.772311 0.526114 6.07199e-19)
(0.79515 0.471695 4.83448e-19)
(0.816775 0.423294 3.31226e-19)
(0.839683 0.37886 6.76045e-19)
(0.859362 0.339496 3.46307e-19)
(0.216961 0.276241 -2.35239e-20)
(0.460865 0.556495 2.74867e-19)
(0.598951 0.641659 1.00792e-19)
(0.669388 0.624598 -8.68317e-20)
(0.709636 0.570474 9.7256e-20)
(0.739773 0.511716 -8.48714e-19)
(0.766513 0.45816 -4.49401e-19)
(0.791691 0.4106 -2.28792e-19)
(0.817384 0.367099 -4.10081e-19)
(0.838611 0.328834 -1.388e-19)
(0.200439 0.274582 -4.41007e-20)
(0.42628 0.547163 -5.07287e-19)
(0.558503 0.626332 4.62534e-20)
(0.629697 0.606796 2.24129e-19)
(0.67354 0.552674 -8.5181e-20)
(0.707847 0.494933 1.28636e-19)
(0.738466 0.442576 3.90892e-19)
(0.767102 0.396136 -1.64817e-19)
(0.795492 0.35381 -4.91768e-19)
(0.818678 0.316811 -2.27511e-20)
(0.183398 0.270596 1.11906e-19)
(0.391512 0.533873 1.47825e-19)
(0.518426 0.607101 2.38415e-19)
(0.590731 0.585659 -1.21753e-19)
(0.638281 0.532095 -4.8782e-19)
(0.676737 0.475802 -5.27887e-19)
(0.711172 0.424984 -1.9363e-19)
(0.743163 0.379971 5.84089e-19)
(0.774202 0.339119 4.76131e-19)
(0.799558 0.303559 5.30032e-19)
(0.166092 0.26428 -4.0302e-19)
(0.35697 0.516691 4.88791e-19)
(0.479104 0.584064 -3.51793e-19)
(0.552802 0.561274 -3.12713e-19)
(0.60411 0.508806 7.00663e-19)
(0.646648 0.454376 6.25159e-19)
(0.684799 0.405428 7.44724e-19)
(0.720033 0.36213 -2.60284e-19)
(0.753659 0.322999 -2.64061e-19)
(0.781283 0.289017 -7.62967e-19)
(0.148774 0.255659 2.97233e-19)
(0.323049 0.495719 -1.10502e-19)
(0.440909 0.557343 4.26608e-19)
(0.516211 0.533751 -3.81354e-19)
(0.571266 0.482896 -5.33383e-20)
(0.617777 0.430729 -1.05991e-18)
(0.659515 0.383969 -4.81667e-19)
(0.697863 0.342665 2.62933e-19)
(0.733994 0.305484 1.02267e-19)
(0.763914 0.273213 -7.07738e-21)
(0.131693 0.244785 1.49372e-19)
(0.290133 0.471092 -3.98363e-19)
(0.404193 0.527091 -5.30803e-19)
(0.481246 0.503224 3.72106e-20)
(0.539981 0.454473 5.14261e-19)
(0.590313 0.404949 -3.31178e-20)
(0.635481 0.360682 -1.72102e-19)
(0.676795 0.321635 -3.01672e-19)
(0.715323 0.286614 -5.6482e-19)
(0.747518 0.256193 1.58443e-20)
(0.115087 0.231736 5.85553e-20)
(0.258583 0.442977 -5.41616e-20)
(0.36929 0.493485 8.63183e-19)
(0.448179 0.469845 3.38214e-19)
(0.510473 0.423662 -1.14445e-19)
(0.564441 0.37714 7.63412e-19)
(0.612853 0.335657 -3.8506e-19)
(0.656963 0.299115 4.7146e-19)
(0.697755 0.266445 1.87349e-19)
(0.732168 0.238017 -3.05184e-19)
(0.0991874 0.216612 1.91277e-19)
(0.228742 0.411571 2.771e-19)
(0.336513 0.456728 -9.85829e-19)
(0.417266 0.433789 -1.45407e-19)
(0.482952 0.390608 -6.39659e-19)
(0.540333 0.347424 8.21424e-20)
(0.591778 0.308997 1.06942e-19)
(0.638491 0.275189 1.58681e-19)
(0.681397 0.245049 5.68799e-19)
(0.717936 0.21876 1.18868e-19)
(0.0842092 0.199537 -2.59331e-19)
(0.200929 0.377098 3.6204e-19)
(0.306153 0.417045 2.46626e-20)
(0.388743 0.395249 9.21096e-20)
(0.457609 0.355471 6.32271e-19)
(0.518153 0.315937 1.03851e-20)
(0.572394 0.280818 1.57236e-19)
(0.6215 0.249956 -7.77572e-20)
(0.666347 0.222509 -3.56576e-19)
(0.70489 0.198503 -1.04792e-19)
(0.0703539 0.180656 5.19176e-19)
(0.175436 0.339809 -3.97903e-19)
(0.278476 0.374683 4.96468e-19)
(0.362828 0.354436 -3.007e-20)
(0.434625 0.318426 -1.38341e-20)
(0.498052 0.282826 -5.94928e-19)
(0.554832 0.251248 1.1414e-19)
(0.6061 0.223525 3.34655e-20)
(0.652702 0.19892 -1.38375e-19)
(0.693097 0.177338 6.05538e-19)
(0.0578055 0.160133 -5.74191e-19)
(0.152529 0.299974 3.12292e-19)
(0.253722 0.329907 -3.08472e-19)
(0.33972 0.311576 -1.80207e-19)
(0.414163 0.279664 -5.42103e-20)
(0.480168 0.248255 1.37394e-19)
(0.539212 0.220426 1.92604e-19)
(0.592397 0.196016 1.95352e-19)
(0.64055 0.174387 -3.3646e-19)
(0.682618 0.155361 -2.28586e-19)
(0.0467292 0.138148 1.5492e-19)
(0.132444 0.257889 -7.51208e-20)
(0.232105 0.283002 -4.88047e-20)
(0.319592 0.26691 5.68488e-19)
(0.396367 0.239385 -1.04306e-19)
(0.464628 0.212394 -1.12563e-19)
(0.525644 0.188501 2.12823e-19)
(0.580489 0.167557 -1.03482e-19)
(0.629978 0.149024 7.65611e-20)
(0.673513 0.132675 1.52453e-19)
(0.0372693 0.114898 1.37025e-19)
(0.115387 0.213865 -4.49638e-20)
(0.213811 0.234264 1.00313e-19)
(0.302598 0.220692 -3.12885e-19)
(0.381364 0.197803 7.00389e-20)
(0.45154 0.175425 4.55053e-19)
(0.514225 0.15563 -2.73914e-19)
(0.570466 0.138287 -4.53345e-19)
(0.62107 0.122952 -1.38252e-19)
(0.66584 0.109388 5.32342e-21)
(0.0295485 0.0905917 4.3748e-20)
(0.10153 0.168228 -1.36749e-19)
(0.198993 0.184005 2.70626e-19)
(0.288863 0.173184 -9.71584e-20)
(0.369259 0.155136 1.58664e-19)
(0.440998 0.137535 -3.7618e-19)
(0.505043 0.121974 1.88454e-19)
(0.562413 0.108346 1.60889e-19)
(0.613907 0.0963018 2.47473e-19)
(0.659664 0.0856199 -2.17957e-19)
(0.0236665 0.065449 -1.55398e-19)
(0.0910136 0.121319 7.36059e-20)
(0.187778 0.132548 -1.22466e-19)
(0.27849 0.124659 -1.63858e-19)
(0.360137 0.111614 -3.50296e-19)
(0.433075 0.0989167 2.51513e-19)
(0.498164 0.087699 -6.21474e-20)
(0.556402 0.0778797 1.8938e-19)
(0.608574 0.0692071 -1.68029e-19)
(0.655066 0.0615004 1.43232e-19)
(0.019699 0.0396992 5.17629e-20)
(0.0839429 0.0734891 -1.6844e-20)
(0.180257 0.0802229 -1.93311e-20)
(0.271553 0.0753973 1.37917e-19)
(0.354057 0.0674701 7.12499e-20)
(0.427819 0.0597665 -7.11155e-20)
(0.493636 0.0529684 -1.02821e-20)
(0.552489 0.0470259 -1.9855e-19)
(0.60515 0.0417858 1.44898e-19)
(0.652162 0.0371193 4.41641e-20)
(0.0176971 0.0135781 -1.20816e-20)
(0.0803881 0.0250974 -2.67866e-20)
(0.176491 0.0273689 -1.50986e-20)
(0.268098 0.0256849 9.84721e-21)
(0.351053 0.0229423 5.53455e-20)
(0.425254 0.0202844 1.00068e-20)
(0.491471 0.0179474 3.4804e-20)
(0.550683 0.0159149 6.30376e-20)
(0.603663 0.0141308 -5.74894e-21)
(0.651028 0.0125236 -6.29876e-20)
(0.0176867 -0.012674 -2.25518e-20)
(0.0803842 -0.0234917 -3.22555e-20)
(0.176511 -0.0256713 5.33447e-21)
(0.268147 -0.0241878 -7.15228e-21)
(0.351136 -0.0217247 6.50406e-20)
(0.425378 -0.0193228 -2.23035e-21)
(0.491645 -0.01719 3.65835e-20)
(0.550925 -0.0153082 5.92291e-20)
(0.604007 -0.0136259 9.16105e-21)
(0.651547 -0.0120832 -7.29686e-20)
(0.0196684 -0.0388148 8.8835e-20)
(0.0839308 -0.0719113 1.78228e-20)
(0.180313 -0.0785523 -5.12218e-20)
(0.271694 -0.0739271 1.84125e-19)
(0.354296 -0.0662823 2.11173e-20)
(0.428171 -0.0588408 -3.11987e-20)
(0.49412 -0.0522571 -1.12591e-20)
(0.553132 -0.0464835 -1.81486e-19)
(0.605987 -0.0413771 1.2211e-19)
(0.653239 -0.0368248 -1.82882e-20)
(0.0236172 -0.0646026 -1.68919e-19)
(0.0909924 -0.119795 2.16382e-20)
(0.187865 -0.130929 -8.54269e-20)
(0.278709 -0.123239 -1.88703e-19)
(0.360506 -0.110481 -3.66296e-19)
(0.433607 -0.0980517 2.53559e-19)
(0.498872 -0.0870579 -1.03189e-21)
(0.557294 -0.0774198 1.73927e-19)
(0.609647 -0.0688953 -2.09785e-19)
(0.656302 -0.0613071 1.86001e-19)
(0.0294829 -0.0897987 -1.69166e-20)
(0.101498 -0.166781 1.18145e-20)
(0.199102 -0.18246 -9.32575e-20)
(0.289141 -0.171833 1.33733e-19)
(0.369722 -0.154073 9.89494e-20)
(0.441651 -0.136742 -4.38311e-19)
(0.505879 -0.121407 1.29306e-19)
(0.56341 -0.107957 3.45249e-19)
(0.615022 -0.0960504 1.07167e-19)
(0.660836 -0.0854654 -1.37041e-19)
(0.0371907 -0.114171 -2.93519e-20)
(0.115344 -0.212512 -1.20578e-19)
(0.21393 -0.232809 2.54918e-19)
(0.302912 -0.219424 -2.9043e-19)
(0.381883 -0.196817 -1.82484e-19)
(0.452255 -0.174706 6.64134e-19)
(0.515106 -0.155127 -5.3281e-19)
(0.571462 -0.137946 -3.04783e-19)
(0.622111 -0.122727 -9.98324e-20)
(0.666853 -0.109231 2.92272e-20)
(0.0466411 -0.137494 2.11987e-19)
(0.132389 -0.256645 9.83998e-20)
(0.232225 -0.281648 -8.26094e-20)
(0.319921 -0.265733 6.29251e-19)
(0.396907 -0.23848 -2.89454e-19)
(0.465355 -0.211744 6.47762e-20)
(0.526506 -0.18805 2.79905e-21)
(0.581415 -0.167246 -5.1783e-20)
(0.630888 -0.148801 1.2072e-19)
(0.674339 -0.132494 6.47979e-20)
(0.0577117 -0.159557 -4.43316e-19)
(0.152462 -0.298846 5.00127e-20)
(0.253833 -0.328663 -2.90001e-19)
(0.340044 -0.310492 -1.06248e-19)
(0.414695 -0.278837 9.18207e-20)
(0.480868 -0.247665 5.13773e-20)
(0.540011 -0.220012 4.65553e-20)
(0.593214 -0.195717 1.15264e-19)
(0.641305 -0.174152 -5.37517e-20)
(0.683264 -0.15515 -4.07947e-19)
(0.0702579 -0.180158 4.57171e-19)
(0.175358 -0.338799 -2.75413e-19)
(0.278571 -0.373551 5.12015e-19)
(0.363132 -0.353446 -6.57901e-20)
(0.435126 -0.317672 -1.2596e-19)
(0.498696 -0.282288 -4.94859e-19)
(0.555541 -0.250861 2.16107e-19)
(0.60679 -0.223228 -3.43119e-19)
(0.653302 -0.198668 2.27024e-19)
(0.693582 -0.177098 2.80256e-19)
(0.0841142 -0.199114 -3.47308e-19)
(0.200841 -0.376208 1.71882e-19)
(0.306227 -0.416025 3.74641e-19)
(0.389014 -0.39435 -4.29318e-20)
(0.458061 -0.354785 6.61238e-19)
(0.518724 -0.315442 4.60259e-20)
(0.572999 -0.280449 -3.62362e-20)
(0.622058 -0.249655 1.77076e-19)
(0.666803 -0.222238 -3.69812e-19)
(0.705237 -0.198238 -1.47197e-19)
(0.099096 -0.21626 2.57585e-19)
(0.228646 -0.410794 3.66611e-19)
(0.336562 -0.455817 -9.5975e-19)
(0.417496 -0.432977 -3.50492e-19)
(0.483344 -0.389984 -1.19395e-19)
(0.54082 -0.346966 -2.27308e-19)
(0.592274 -0.308641 2.38664e-19)
(0.638923 -0.274883 -3.28455e-20)
(0.681723 -0.244762 5.92169e-19)
(0.718169 -0.218475 -5.09054e-20)
(0.115001 -0.231448 -6.73292e-20)
(0.25848 -0.442308 -1.93758e-19)
(0.369312 -0.492678 1.164e-18)
(0.448364 -0.469115 1.62873e-19)
(0.510799 -0.423094 -1.50763e-19)
(0.564839 -0.376713 7.21975e-19)
(0.613241 -0.335311 3.3927e-21)
(0.657276 -0.298804 1.49013e-20)
(0.697969 -0.266147 1.96708e-19)
(0.732307 -0.237721 -2.94528e-20)
(0.131613 -0.244553 4.61354e-20)
(0.290024 -0.470521 -2.7761e-19)
(0.404188 -0.526381 -7.26936e-19)
(0.481383 -0.50257 3.28697e-19)
(0.540238 -0.453956 -2.06552e-20)
(0.590623 -0.404549 2.26453e-19)
(0.635766 -0.360345 5.12026e-20)
(0.677002 -0.321321 -5.81551e-19)
(0.715438 -0.28631 -4.63701e-19)
(0.747581 -0.255892 5.57478e-20)
(0.148702 -0.255475 -8.07735e-20)
(0.322936 -0.495236 -8.2521e-20)
(0.440877 -0.556722 5.56111e-19)
(0.516299 -0.533168 -2.44602e-19)
(0.571454 -0.482426 -2.44464e-19)
(0.618001 -0.430355 -8.57661e-19)
(0.659704 -0.38364 -4.47443e-19)
(0.697974 -0.342351 2.2875e-19)
(0.734026 -0.305181 5.77047e-20)
(0.763915 -0.272915 2.61976e-19)
(0.166026 -0.264134 -3.33198e-19)
(0.356853 -0.516285 4.77081e-19)
(0.479046 -0.583525 -7.71237e-19)
(0.552842 -0.560755 2.76776e-19)
(0.604231 -0.508379 2.68233e-19)
(0.646791 -0.454025 8.7713e-19)
(0.684899 -0.405109 5.65946e-19)
(0.720058 -0.361821 -2.9464e-19)
(0.753618 -0.322701 -4.34966e-19)
(0.781235 -0.288729 -4.5662e-19)
(0.183337 -0.270481 2.40135e-19)
(0.391392 -0.533534 5.40298e-20)
(0.518343 -0.606635 9.896e-23)
(0.590725 -0.585199 -2.60292e-20)
(0.638339 -0.531707 -6.72043e-19)
(0.676804 -0.475472 -4.92205e-20)
(0.711192 -0.424677 -5.29793e-19)
(0.743113 -0.37967 4.61757e-19)
(0.774098 -0.338833 8.66349e-19)
(0.799471 -0.303291 4.32626e-19)
(0.200382 -0.274491 -2.91472e-19)
(0.426157 -0.54688 -4.64655e-19)
(0.558397 -0.62593 -3.3931e-21)
(0.629649 -0.606389 3.27336e-19)
(0.673538 -0.552321 -1.87518e-19)
(0.707843 -0.494625 3.57281e-19)
(0.738413 -0.442282 6.78761e-20)
(0.766985 -0.395847 -2.04394e-19)
(0.795332 -0.353541 -2.53924e-19)
(0.81856 -0.316571 -1.92283e-19)
(0.216905 -0.276167 -1.06161e-19)
(0.460737 -0.556258 2.36456e-19)
(0.598823 -0.641313 2.06697e-19)
(0.669299 -0.62424 1.1303e-20)
(0.709579 -0.570155 -1.34565e-19)
(0.739706 -0.511429 -6.40533e-19)
(0.766396 -0.45788 -5.39502e-19)
(0.791515 -0.410323 -7.21774e-20)
(0.817172 -0.366848 -6.34138e-19)
(0.838464 -0.328632 -2.90189e-19)
(0.232652 -0.275541 4.54547e-21)
(0.494716 -0.56164 -3.01756e-19)
(0.639222 -0.652719 -8.9393e-20)
(0.709352 -0.638687 -4.0389e-19)
(0.746206 -0.58516 2.13154e-19)
(0.772185 -0.525847 5.74983e-19)
(0.794976 -0.471431 3.00679e-19)
(0.816547 -0.423034 3.40164e-19)
(0.83942 -0.378636 7.56496e-19)
(0.859175 -0.339355 1.10415e-19)
(0.247372 -0.272673 1.63946e-19)
(0.527669 -0.563034 5.34351e-20)
(0.679186 -0.660112 1.73289e-19)
(0.749474 -0.649695 1.50124e-19)
(0.783157 -0.597308 1.02165e-19)
(0.805064 -0.537862 -1.21426e-20)
(0.823979 -0.482935 -8.98781e-20)
(0.841912 -0.434044 -1.52198e-19)
(0.861739 -0.389257 -2.36769e-19)
(0.880621 -0.349767 3.96587e-19)
(0.260822 -0.267654 -2.15309e-23)
(0.559173 -0.560488 2.73047e-20)
(0.718295 -0.663486 -5.58202e-20)
(0.789325 -0.657249 -1.38729e-19)
(0.820169 -0.606589 1.45875e-19)
(0.838129 -0.547467 -3.27684e-19)
(0.85326 -0.492353 1.03931e-19)
(0.867612 -0.443149 5.63389e-20)
(0.884033 -0.397818 -3.75238e-21)
(0.903445 -0.35691 -1.52657e-19)
(0.27278 -0.260607 3.75152e-21)
(0.5888 -0.554084 -2.9974e-20)
(0.756126 -0.662868 2.65013e-20)
(0.828559 -0.661365 2.27116e-20)
(0.856977 -0.613017 -5.29946e-20)
(0.871159 -0.554685 1.12346e-19)
(0.882613 -0.499744 -4.22916e-19)
(0.893563 -0.450636 1.1991e-19)
(0.905715 -0.406427 -2.60912e-19)
(0.923346 -0.369523 1.04481e-19)
(0.283078 -0.251699 -3.70625e-20)
(0.616116 -0.543933 4.70711e-20)
(0.792254 -0.658325 -6.10685e-21)
(0.866828 -0.662085 -4.66846e-20)
(0.893317 -0.61662 1.75799e-19)
(0.903941 -0.559545 2.31377e-19)
(0.911788 -0.505131 2.90271e-19)
(0.919545 -0.456374 -5.92921e-20)
(0.927775 -0.4131 -1.42863e-19)
(0.940955 -0.376311 1.91142e-20)
(0.291493 -0.241006 1.21123e-19)
(0.640707 -0.530154 -9.96539e-20)
(0.826268 -0.649997 -2.52003e-20)
(0.903783 -0.659471 3.58638e-20)
(0.928924 -0.61744 -1.35879e-19)
(0.936283 -0.562077 -1.74424e-19)
(0.940613 -0.50851 -6.31074e-20)
(0.945334 -0.46023 -2.02482e-20)
(0.950327 -0.417634 8.1782e-20)
(0.958976 -0.381027 -5.75305e-19)
(0.297797 -0.228686 -1.5465e-20)
(0.661959 -0.512854 -2.42738e-20)
(0.857876 -0.638096 -8.31256e-20)
(0.939086 -0.653603 -1.99661e-20)
(0.963539 -0.61554 5.39706e-20)
(0.968007 -0.562336 1.59622e-19)
(0.968974 -0.509933 -8.76532e-20)
(0.970772 -0.462323 -5.49297e-20)
(0.973113 -0.420464 4.26042e-19)
(0.978216 -0.3845 9.11158e-20)
(0.301982 -0.214964 2.49521e-19)
(0.679646 -0.492585 -1.46974e-19)
(0.886556 -0.622873 7.47273e-20)
(0.972458 -0.644463 3.55238e-21)
(0.996907 -0.611 -3.56804e-20)
(0.99893 -0.560403 -6.42377e-20)
(0.996766 -0.509492 4.54846e-20)
(0.995755 -0.46281 -8.58965e-20)
(0.995755 -0.421824 -3.53035e-20)
(0.998027 -0.386743 6.69921e-20)
(0.30396 -0.200185 -1.24157e-19)
(0.693676 -0.469686 3.10417e-19)
(0.91152 -0.604175 -8.05979e-20)
(1.0035 -0.632254 3.70508e-21)
(1.02876 -0.603931 9.47355e-20)
(1.02886 -0.556372 3.85263e-20)
(1.02386 -0.507285 2.70968e-20)
(1.02018 -0.461793 -2.80368e-20)
(1.01799 -0.421791 -3.97535e-20)
(1.01774 -0.387727 2.79705e-20)
(0.303631 -0.184591 8.96657e-20)
(0.70374 -0.444286 5.70924e-20)
(0.932538 -0.582335 6.85979e-21)
(1.03176 -0.617212 -5.10266e-20)
(1.05884 -0.594415 -1.85531e-20)
(1.05762 -0.550349 -4.12474e-20)
(1.05012 -0.503408 -1.7739e-20)
(1.04394 -0.45935 6.85744e-20)
(1.03969 -0.420435 -2.44891e-20)
(1.03708 -0.387497 -1.21396e-19)
(0.300946 -0.168418 -5.59348e-20)
(0.70951 -0.416706 -5.14526e-19)
(0.949472 -0.557701 2.87067e-19)
(1.05679 -0.599448 9.59727e-20)
(1.08684 -0.582601 -1.01751e-19)
(1.08499 -0.542445 -3.07867e-20)
(1.07539 -0.497963 1.8134e-20)
(1.06693 -0.45557 -4.03252e-20)
(1.06075 -0.417847 2.03346e-21)
(1.05597 -0.386143 5.29944e-20)
(0.295915 -0.151916 -1.04234e-19)
(0.710734 -0.387333 1.8131e-19)
(0.961968 -0.530531 -4.30251e-19)
(1.07834 -0.579156 -1.07432e-19)
(1.11247 -0.568642 9.67723e-20)
(1.1108 -0.53279 1.73422e-23)
(1.09955 -0.491062 -5.07859e-20)
(1.08905 -0.450551 -3.41398e-21)
(1.08112 -0.414128 2.07713e-20)
(1.07434 -0.383757 4.82216e-20)
(0.288602 -0.135338 4.0946e-20)
(0.70724 -0.356572 3.78722e-19)
(0.969648 -0.501109 1.55478e-19)
(1.09608 -0.556546 1.47483e-19)
(1.13547 -0.552688 -3.57809e-20)
(1.13488 -0.52152 1.21179e-19)
(1.12248 -0.482822 -1.81132e-20)
(1.11019 -0.444399 1.5379e-20)
(1.10069 -0.409375 -1.40771e-20)
(1.0921 -0.380414 1.82334e-20)
(0.279111 -0.118934 -1.30123e-19)
(0.698932 -0.324846 -2.3853e-19)
(0.972191 -0.469763 -1.53251e-19)
(1.10966 -0.531831 1.10194e-19)
(1.15557 -0.534898 1.46514e-20)
(1.15702 -0.508765 -1.31311e-19)
(1.14407 -0.473362 7.24859e-21)
(1.13026 -0.437224 2.21481e-20)
(1.11941 -0.403682 1.40434e-20)
(1.1092 -0.376197 -6.56241e-21)
(0.267589 -0.102945 8.58297e-20)
(0.685791 -0.292594 2.22455e-19)
(0.969332 -0.436851 1.95148e-19)
(1.11874 -0.505241 -2.02239e-19)
(1.17249 -0.515426 -1.19742e-19)
(1.17704 -0.494659 4.25019e-20)
(1.16421 -0.462803 5.64407e-20)
(1.14924 -0.42914 -4.01488e-21)
(1.13713 -0.397131 -1.7558e-20)
(1.1257 -0.371213 -3.57321e-21)
(0.254225 -0.0875982 5.64551e-20)
(0.667877 -0.26027 -8.96364e-21)
(0.960856 -0.402749 -9.16945e-20)