/*--------------------------------*- C++ -*----------------------------------*\
  =========                 |
  \\      /  F ield         | OpenFOAM: The Open Source CFD Toolbox
   \\    /   O peration     | Website:  https://openfoam.org
    \\  /    A nd           | Version:  7
     \\/     M anipulation  |
\*---------------------------------------------------------------------------*/
FoamFile
{
    version     2.0;
    format      ascii;
    class       volScalarField;
    location    "35";
    object      p;
}
// * * * * * * * * * * * * * * * * * * * * * * * * * * * * * * * * * * * * * //

dimensions      [0 2 -2 0 0 0 0];

internalField   nonuniform List<scalar> 
6386
(
-0.213554
-0.215835
-0.218307
-0.221006
-0.220345
-0.22398
-0.22299
-0.22728
-0.225902
-0.223687
-0.230953
-0.229131
-0.226482
-0.223202
-0.23506
-0.232719
-0.229594
-0.225811
-0.239659
-0.236715
-0.23307
-0.228755
-0.224258
-0.244804
-0.241167
-0.236961
-0.232085
-0.227041
-0.222056
-0.250544
-0.246118
-0.241312
-0.235848
-0.230219
-0.224578
-0.218526
-0.25692
-0.251612
-0.24617
-0.240087
-0.233816
-0.227416
-0.220432
-0.212792
-0.263965
-0.257681
-0.251573
-0.244834
-0.237842
-0.23055
-0.22244
-0.213284
-0.201619
-0.271697
-0.264353
-0.25755
-0.250107
-0.242288
-0.233938
-0.224468
-0.213606
-0.200471
-0.187705
-0.280119
-0.271642
-0.264119
-0.255905
-0.247123
-0.237505
-0.226412
-0.21367
-0.198957
-0.184656
-0.289216
-0.279547
-0.271278
-0.262203
-0.252287
-0.241142
-0.228154
-0.213392
-0.197056
-0.18133
-0.298947
-0.288046
-0.278997
-0.268947
-0.257683
-0.244707
-0.229573
-0.212698
-0.19474
-0.177672
-0.309245
-0.297093
-0.28722
-0.276048
-0.263171
-0.248042
-0.23055
-0.211518
-0.191975
-0.173633
-0.320011
-0.306608
-0.29585
-0.283377
-0.268572
-0.250976
-0.230973
-0.209787
-0.18872
-0.169162
-0.331114
-0.316477
-0.304755
-0.29076
-0.273678
-0.253338
-0.230734
-0.207441
-0.184925
-0.164211
-0.342381
-0.326547
-0.313762
-0.29798
-0.278264
-0.254965
-0.229733
-0.204415
-0.180539
-0.158729
-0.353604
-0.336625
-0.322652
-0.304782
-0.282098
-0.2557
-0.227873
-0.200641
-0.175505
-0.15267
-0.36454
-0.346479
-0.331171
-0.310884
-0.284953
-0.255394
-0.225061
-0.196052
-0.169766
-0.145986
-0.37491
-0.355843
-0.339026
-0.315993
-0.286612
-0.253912
-0.221209
-0.19058
-0.163264
-0.138638
-0.384408
-0.364418
-0.345898
-0.319818
-0.286872
-0.251127
-0.21623
-0.184158
-0.155941
-0.130585
-0.392707
-0.371885
-0.351453
-0.322079
-0.285551
-0.246924
-0.210044
-0.176721
-0.147745
-0.121793
-0.399469
-0.377909
-0.355356
-0.322515
-0.282482
-0.241199
-0.202578
-0.168208
-0.138627
-0.112229
-0.404351
-0.382148
-0.357282
-0.320893
-0.277525
-0.23386
-0.193762
-0.158565
-0.128552
-0.101879
-0.407019
-0.384267
-0.356932
-0.317011
-0.270558
-0.224831
-0.183537
-0.14774
-0.117488
-0.0907326
-0.407156
-0.383945
-0.35404
-0.310701
-0.261487
-0.214047
-0.17185
-0.135687
-0.105395
-0.0787399
-0.404472
-0.380891
-0.348382
-0.301834
-0.25024
-0.201466
-0.15867
-0.122375
-0.092211
-0.0657279
-0.398711
-0.374849
-0.339781
-0.290317
-0.236774
-0.187061
-0.143981
-0.107799
-0.077889
-0.0514183
-0.389659
-0.365609
-0.328106
-0.276096
-0.221069
-0.170824
-0.127782
-0.0919776
-0.0624931
-0.0357987
-0.377152
-0.353016
-0.313274
-0.259152
-0.203131
-0.152761
-0.110078
-0.0749292
-0.0461174
-0.0198132
-0.361077
-0.336971
-0.295248
-0.239503
-0.182988
-0.132897
-0.0909089
-0.0567127
-0.0285933
-0.00337251
-0.341377
-0.317429
-0.27404
-0.217204
-0.160697
-0.11129
-0.0703751
-0.0373321
-0.010091
0.0137447
-0.318049
-0.294402
-0.249714
-0.192345
-0.136338
-0.0880426
-0.0484981
-0.0168272
0.00927827
0.0315635
-0.291144
-0.267964
-0.222407
-0.165032
-0.109999
-0.0632231
-0.0253458
0.0047182
0.0294428
0.050006
-0.260767
-0.238253
-0.192323
-0.13533
-0.0817951
-0.0369255
-0.00101353
0.0272147
0.0503339
0.0689652
-0.227085
-0.205478
-0.159568
-0.103352
-0.0518915
-0.0092809
0.0243858
0.0505674
0.0718792
0.0883572
-0.190325
-0.169925
-0.123852
-0.0695861
-0.0204656
0.0195659
0.0507271
0.0746758
0.0939954
0.108078
-0.1507
-0.131827
-0.0856606
-0.0340702
0.0122877
0.0494555
0.0778867
0.0994458
0.116531
0.127744
-0.108412
-0.0907933
-0.0461174
0.0029342
0.0461826
0.0802292
0.105763
0.124807
0.13921
0.146514
-0.0638488
-0.0477281
-0.00506894
0.0411532
0.0810121
0.111727
0.134265
0.15069
0.161769
0.163938
-0.0174823
-0.0028974
0.0373084
0.0803231
0.116549
0.143773
0.163246
0.1769
0.18425
0.182025
0.0304189
0.0432604
0.0807099
0.120174
0.152558
0.176164
0.192463
0.203051
0.206658
0.205525
0.079449
0.090348
0.124788
0.160423
0.188796
0.20868
0.221652
0.228971
0.229605
0.229151
0.12918
0.137975
0.169184
0.200776
0.225015
0.241098
0.250643
0.254722
0.252807
0.251492
0.179182
0.185746
0.21354
0.240936
0.26096
0.273192
0.279262
0.28017
0.275845
0.272917
0.22902
0.233258
0.257496
0.280602
0.296378
0.304746
0.307342
0.305147
0.298402
0.29344
0.278262
0.280112
0.300702
0.319477
0.331016
0.335547
0.334705
0.329475
0.320302
0.31311
0.326481
0.325913
0.342811
0.35727
0.364627
0.365385
0.361175
0.352985
0.341401
0.331895
0.373258
0.370273
0.383489
0.393698
0.396971
0.394056
0.386576
0.375522
0.361576
0.349739
0.418188
0.412821
0.422413
0.428487
0.427815
0.421364
0.41074
0.396939
0.380712
0.36657
0.460883
0.453198
0.459276
0.461377
0.45694
0.44712
0.433506
0.417098
0.398696
0.382311
0.500973
0.491068
0.493785
0.492122
0.484136
0.471147
0.454722
0.43587
0.415421
0.396885
0.538114
0.526114
0.525671
0.520493
0.509208
0.493276
0.474246
0.453133
0.430786
0.410219
0.571987
0.558047
0.554683
0.546278
0.531976
0.513357
0.491948
0.468777
0.444695
0.422244
0.602301
0.5866
0.580594
0.569285
0.552276
0.531248
0.507709
0.482698
0.457063
0.432899
0.628797
0.611539
0.603203
0.589344
0.569964
0.546828
0.521424
0.494807
0.467811
0.442129
0.651247
0.632656
0.622332
0.606303
0.584912
0.559987
0.533003
0.505025
0.476874
0.44989
0.669459
0.649778
0.637831
0.620038
0.597013
0.570636
0.542368
0.513285
0.484194
0.456141
0.683276
0.662762
0.649579
0.630446
0.60618
0.5787
0.549457
0.519535
0.489727
0.46085
0.692578
0.671501
0.657483
0.637446
0.612345
0.584122
0.554223
0.523736
0.493444
0.46401
0.697285
0.675919
0.661479
0.640985
0.615461
0.586862
0.556631
0.52586
0.495331
0.465633
0.697352
0.67598
0.661534
0.641033
0.615503
0.586897
0.55666
0.525884
0.495353
0.465667
0.692778
0.67168
0.657645
0.637588
0.612466
0.584223
0.554304
0.523799
0.493494
0.46405
0.683599
0.663052
0.64984
0.630672
0.606372
0.578856
0.549578
0.519623
0.489785
0.46088
0.669892
0.650166
0.638179
0.620338
0.597262
0.570833
0.542515
0.513385
0.484251
0.456158
0.651772
0.633127
0.622752
0.606661
0.585204
0.560213
0.533165
0.505127
0.476925
0.449896
0.629395
0.612076
0.60368
0.589745
0.570286
0.547071
0.521592
0.494908
0.467855
0.442125
0.602953
0.587186
0.581112
0.569716
0.552616
0.531499
0.507877
0.482794
0.4571
0.432887
0.572671
0.558663
0.555225
0.546725
0.532323
0.513609
0.492113
0.468868
0.444727
0.422227
0.538811
0.526745
0.526224
0.520946
0.509556
0.493525
0.474407
0.453221
0.430816
0.4102
0.501666
0.491698
0.494337
0.492571
0.484479
0.471389
0.454878
0.435955
0.415451
0.396866
0.461557
0.453814
0.459816
0.461815
0.457273
0.447356
0.433658
0.417182
0.398727
0.382293
0.418832
0.413412
0.422934
0.428909
0.428135
0.421591
0.410888
0.397023
0.380746
0.366554
0.373861
0.370831
0.383983
0.3941
0.397276
0.394274
0.386721
0.375608
0.361614
0.349725
0.327036
0.326431
0.343273
0.357649
0.364917
0.365594
0.361317
0.353073
0.341443
0.331882
0.278765
0.280587
0.301129
0.31983
0.331289
0.335747
0.334844
0.329566
0.320349
0.313097
0.229468
0.233686
0.257887
0.280929
0.296635
0.304938
0.307479
0.305241
0.298457
0.293427
0.179574
0.186125
0.213892
0.241236
0.2612
0.273376
0.279398
0.280269
0.275911
0.272908
0.129518
0.138307
0.169499
0.201049
0.225238
0.241274
0.250777
0.254824
0.25289
0.251498
0.0797333
0.0906331
0.125065
0.160669
0.189003
0.208849
0.221784
0.229077
0.229712
0.229205
0.0306529
0.0435005
0.0809508
0.120395
0.152749
0.176326
0.192595
0.203158
0.206786
0.205694
-0.0172955
-0.00270013
0.0375146
0.0805188
0.116725
0.143928
0.16338
0.177013
0.184395
0.182335
-0.0637054
-0.0475709
-0.00489587
0.0413246
0.0811722
0.111874
0.134399
0.150809
0.161909
0.164211
-0.108309
-0.0906732
-0.0459757
0.0030821
0.0463268
0.0803664
0.105893
0.124926
0.139333
0.146704
-0.150633
-0.131741
-0.0855488
-0.0339452
0.0124157
0.0495814
0.0780086
0.0995586
0.116639
0.127883
-0.190289
-0.16987
-0.123769
-0.0694833
-0.0203539
0.0196793
0.0508388
0.07478
0.0940921
0.108192
-0.227078
-0.20545
-0.159509
-0.103271
-0.051796
-0.00918021
0.0244868
0.0506628
0.0719674
0.0884558
-0.260786
-0.238251
-0.192289
-0.135268
-0.0817155
-0.0368376
-0.000923278
0.0273015
0.0504143
0.0690513
-0.291186
-0.267985
-0.222396
-0.164989
-0.109935
-0.063148
-0.0252661
0.00479635
0.029516
0.0500825
-0.31811
-0.294443
-0.249723
-0.192321
-0.13629
-0.08798
-0.0484289
-0.0167574
0.0093448
0.031633
-0.341456
-0.317489
-0.274067
-0.217197
-0.160664
-0.11124
-0.0703161
-0.0372703
-0.0100303
0.0138091
-0.361171
-0.337047
-0.295292
-0.239512
-0.182969
-0.132859
-0.0908598
-0.0566583
-0.0285378
-0.00331232
-0.377259
-0.353106
-0.313334
-0.259177
-0.203125
-0.152735
-0.110039
-0.0748818
-0.0460664
-0.0197568
-0.389778
-0.365712
-0.328181
-0.276135
-0.221077
-0.170809
-0.127752
-0.0919371
-0.0624459
-0.035746
-0.39884
-0.374963
-0.339868
-0.29037
-0.236795
-0.187057
-0.14396
-0.107765
-0.0778455
-0.0513665
-0.40461
-0.381016
-0.348481
-0.3019
-0.250273
-0.201472
-0.158657
-0.122347
-0.0921714
-0.0656774
-0.407302
-0.384079
-0.35415
-0.310779
-0.261532
-0.214065
-0.171846
-0.135666
-0.10536
-0.0786911
-0.407172
-0.384409
-0.357053
-0.317101
-0.270615
-0.224859
-0.183541
-0.147725
-0.117456
-0.0906858
-0.40451
-0.382298
-0.357413
-0.320994
-0.277593
-0.233899
-0.193775
-0.158557
-0.128525
-0.101834
-0.399634
-0.378066
-0.355496
-0.322627
-0.282562
-0.241248
-0.2026
-0.168206
-0.138604
-0.112186
-0.392877
-0.372049
-0.351602
-0.322201
-0.285642
-0.246984
-0.210075
-0.176726
-0.147726
-0.121752
-0.384583
-0.364587
-0.346054
-0.319951
-0.286975
-0.251198
-0.21627
-0.18417
-0.155927
-0.130546
-0.37509
-0.356018
-0.33919
-0.316135
-0.286725
-0.253994
-0.221259
-0.1906
-0.163255
-0.1386
-0.364725
-0.34666
-0.331342
-0.311035
-0.285077
-0.255487
-0.225122
-0.19608
-0.169763
-0.145951
-0.353793
-0.336811
-0.322829
-0.304942
-0.282233
-0.255804
-0.227944
-0.200678
-0.175508
-0.152637
-0.342574
-0.326738
-0.313945
-0.298149
-0.27841
-0.255082
-0.229816
-0.204461
-0.180549
-0.1587
-0.331311
-0.316672
-0.304944
-0.290937
-0.273835
-0.253467
-0.230829
-0.207499
-0.184942
-0.164185
-0.320213
-0.306807
-0.296044
-0.283561
-0.268739
-0.251117
-0.231082
-0.209857
-0.188746
-0.169142
-0.30945
-0.297296
-0.287419
-0.276239
-0.263348
-0.248197
-0.230674
-0.211601
-0.192012
-0.173619
-0.299156
-0.288253
-0.279201
-0.269145
-0.25787
-0.244875
-0.229712
-0.212796
-0.194789
-0.177665
-0.289429
-0.279757
-0.271486
-0.262408
-0.252485
-0.241323
-0.228309
-0.213507
-0.197119
-0.181332
-0.280336
-0.271856
-0.264332
-0.256116
-0.24733
-0.237701
-0.226584
-0.213803
-0.199036
-0.18467
-0.271918
-0.26457
-0.257767
-0.250324
-0.242504
-0.234148
-0.224658
-0.213759
-0.200569
-0.187733
-0.26419
-0.257901
-0.251793
-0.245057
-0.238067
-0.230774
-0.222648
-0.213458
-0.257148
-0.251835
-0.246394
-0.240316
-0.23405
-0.227653
-0.22066
-0.212989
-0.250774
-0.246344
-0.24154
-0.236082
-0.230463
-0.224829
-0.218773
-0.245036
-0.241393
-0.23719
-0.232324
-0.227294
-0.222321
-0.239891
-0.236941
-0.233302
-0.228998
-0.224518
-0.235289
-0.232943
-0.229825
-0.226057
-0.231175
-0.22935
-0.226711
-0.223449
-0.227493
-0.226114
-0.22391
-0.224179
-0.22319
-0.221187
-0.220531
-0.218467
-0.21597
-0.111788
-0.119845
-0.127342
-0.134302
-0.140747
-0.146702
-0.152192
-0.15724
-0.161868
-0.166097
-0.169953
-0.0978188
-0.105552
-0.112839
-0.119702
-0.126162
-0.132242
-0.137961
-0.143341
-0.148408
-0.153189
-0.157729
-0.0853443
-0.0927118
-0.0997291
-0.106421
-0.112812
-0.118924
-0.124781
-0.130413
-0.135849
-0.141132
-0.146304
-0.0742654
-0.0812812
-0.0880314
-0.0945374
-0.10082
-0.106902
-0.112804
-0.118551
-0.124166
-0.129675
-0.135089
-0.0644619
-0.071132
-0.077599
-0.0838794
-0.0899899
-0.0959467
-0.101764
-0.107457
-0.113033
-0.118502
-0.123858
-0.0557591
-0.0620749
-0.0682327
-0.0742445
-0.0801224
-0.0858777
-0.0915195
-0.097057
-0.102495
-0.107847
-0.113115
-0.0479738
-0.0539364
-0.0597743
-0.0654971
-0.0711139
-0.0766341
-0.0820658
-0.0874193
-0.0927026
-0.0979322
-0.103113
-0.0409952
-0.0466108
-0.0521285
-0.0575564
-0.0629019
-0.0681733
-0.0733786
-0.0785269
-0.0836246
-0.0886817
-0.0936963
-0.0347355
-0.0400132
-0.0452146
-0.0503462
-0.0554141
-0.0604249
-0.0653845
-0.0702994
-0.0751729
-0.0800109
-0.0848126
-0.029107
-0.0340585
-0.0389503
-0.0437876
-0.0485753
-0.0533184
-0.0580214
-0.0626894
-0.0673261
-0.0719373
-0.0765265
-0.0240286
-0.0286683
-0.0332612
-0.0378114
-0.0423228
-0.0467998
-0.0512466
-0.0556677
-0.0600671
-0.0644494
-0.0688177
-0.0194379
-0.0237814
-0.0280882
-0.0323614
-0.0366046
-0.0408216
-0.045016
-0.0491914
-0.053351
-0.0574981
-0.061635
-0.0152746
-0.0193392
-0.0233737
-0.0273821
-0.0313673
-0.0353323
-0.03928
-0.0432133
-0.047135
-0.051048
-0.054955
-0.0115005
-0.0153008
-0.0190763
-0.0228314
-0.0265686
-0.0302903
-0.0339988
-0.0376967
-0.0413865
-0.0450708
-0.0487521
-0.00807879
-0.0116278
-0.0151573
-0.0186708
-0.0221706
-0.0256587
-0.0291369
-0.0326074
-0.0360723
-0.0395338
-0.0429939
-0.00496274
-0.00827551
-0.0115731
-0.0148582
-0.0181327
-0.0213982
-0.0246563
-0.0279088
-0.0311574
-0.0344038
-0.03765
-0.00212176
-0.00521298
-0.0082924
-0.011362
-0.0144233
-0.0174776
-0.0205262
-0.0235706
-0.0266123
-0.0296527
-0.0326934
0.000473609
-0.00240973
-0.00528411
-0.00815085
-0.011011
-0.0138656
-0.0167158
-0.0195627
-0.0224076
-0.0252517
-0.0280962
0.00284485
0.000157028
-0.00252455
-0.00520037
-0.00787092
-0.010537
-0.0131995
-0.0158594
-0.0185177
-0.0211753
-0.0238332
0.0050209
0.00251452
1.26396e-05
-0.00248463
-0.0049775
-0.00746659
-0.00995263
-0.0124364
-0.0149185
-0.0173999
-0.0198811
0.00702949
0.00468764
0.00235212
2.14099e-05
-0.0023055
-0.00462917
-0.00695004
-0.00926859
-0.0115854
-0.0139009
-0.016216
0.00886591
0.00668116
0.00450224
0.00232773
0.000156619
-0.00201154
-0.00417702
-0.00634011
-0.00850121
-0.0106608
-0.0128193
-0.0149771
0.0105474
0.00851116
0.00647938
0.00445124
0.00242615
0.000403833
-0.00161585
-0.00363309
-0.00564814
-0.0076613
-0.0096729
-0.0116832
0.0120986
0.0101999
0.00830457
0.00641243
0.00452316
0.00263664
0.000752819
-0.0011284
-0.00300715
-0.00488359
-0.00675793
-0.00863032
0.0135262
0.0117547
0.0099862
0.00822063
0.00645786
0.0046979
0.00294075
0.00118642
-0.000565147
-0.00231399
-0.00406023
-0.00580389
0.0148408
0.0131874
0.0115367
0.00988873
0.00824357
0.00660127
0.00496193
0.00332562
0.00169238
6.22387e-05
-0.00156481
-0.00318872
0.0160514
0.0145073
0.0129657
0.0114268
0.00989071
0.00835756
0.00682752
0.00530073
0.0037773
0.00225734
0.000740903
-0.000771903
0.0171653
0.0157222
0.0142816
0.0128436
0.0114085
0.00997637
0.00854754
0.00712216
0.00570042
0.00428246
0.00286842
0.00145844
0.0181888
0.016839
0.0154916
0.0141468
0.0128049
0.0114661
0.0101308
0.00879907
0.00747122
0.00614744
0.0048279
0.0035128
0.0191277
0.0178638
0.0166022
0.0153433
0.0140872
0.0128344
0.0115852
0.0103397
0.00909826
0.00786114
0.00662854
0.00540068
0.0199861
0.0188012
0.0176185
0.0164384
0.0152612
0.0140873
0.0129171
0.0117507
0.0105886
0.00943098
0.00827807
0.00713014
0.020769
0.0196561
0.0185455
0.0174374
0.0163323
0.0152305
0.0141324
0.0130384
0.0119487
0.0108636
0.00978334
0.00870829
0.0214814
0.0204334
0.0193878
0.018345
0.0173054
0.0162691
0.0152366
0.0142082
0.0131842
0.0121649
0.0111506
0.0101416
0.0221218
0.021133
0.0201466
0.019163
0.0181826
0.0172056
0.0162323
0.0152632
0.0142985
0.0133386
0.0123838
0.0114343
0.0226927
0.0217573
0.0208242
0.0198939
0.0189666
0.0180428
0.0171227
0.0162067
0.0152952
0.0143884
0.0134867
0.0125903
0.0231972
0.0223091
0.0214232
0.0205401
0.01966
0.0187833
0.0179103
0.0170413
0.0161767
0.0153169
0.014462
0.0136125
0.0236354
0.0227887
0.0219441
0.0211023
0.0202634
0.0194278
0.0185959
0.0177679
0.0169443
0.0161253
0.0153112
0.0145022
0.0240069
0.0231956
0.0223865
0.0215799
0.0207763
0.0199759
0.0191791
0.0183861
0.0175973
0.016813
0.0160335
0.015259
0.0243118
0.02353
0.0227504
0.0219732
0.0211989
0.0204278
0.01966
0.0188959
0.0181359
0.0173801
0.0166289
0.0158825
0.0245446
0.0237862
0.02303
0.0222762
0.0215252
0.0207771
0.0200324
0.0192912
0.0185538
0.0178204
0.0170914
0.0163669
0.0247099
0.0239685
0.0232292
0.0224921
0.0217577
0.021026
0.0202973
0.019572
0.0188502
0.0181321
0.017418
0.0167082
0.0247868
0.024057
0.0233293
0.0226038
0.0218808
0.0211605
0.020443
0.0197284
0.0190171
0.0183091
0.0176046
0.0169037
0.174135
0.156038
0.139181
0.122644
0.105182
0.0874474
0.0701119
0.0532557
0.0368353
0.0208978
0.00549699
-0.00934464
-0.0236048
-0.0370902
-0.0501429
-0.0622811
-0.0735117
-0.0840149
-0.0938855
-0.103141
0.164814
0.147278
0.129181
0.113244
0.0973978
0.0812111
0.0654045
0.0502302
0.0355646
0.0213539
0.00764334
-0.00549374
-0.0179611
-0.0295816
-0.0410009
-0.0518985
-0.0621339
-0.0717879
-0.0809426
-0.0896194
0.153847
0.137454
0.119643
0.104667
0.0907068
0.0764549
0.0623405
0.0488077
0.0358127
0.0232477
0.0111343
-0.000450869
-0.011465
-0.0219619
-0.0324931
-0.0425523
-0.052012
-0.0609584
-0.0694781
-0.0776041
0.142429
0.127518
0.110912
0.0971118
0.0847725
0.0722636
0.0596853
0.0475496
0.035936
0.0247216
0.0138628
0.00337978
-0.00670714
-0.0163778
-0.0254256
-0.034414
-0.0431259
-0.0514321
-0.0593613
-0.0669641
0.131707
0.118358
0.103259
0.0906744
0.0796815
0.0686563
0.057461
0.0465687
0.03615
0.0261123
0.0163842
0.00697674
-0.00207501
-0.0107515
-0.0190637
-0.0273204
-0.0353546
-0.0430593
-0.0504493
-0.0575732
0.122031
0.1101
0.096523
0.0851176
0.0752628
0.0654852
0.0555138
0.0457364
0.0363643
0.0273457
0.0185999
0.0101155
0.00191395
-0.0059996
-0.0136388
-0.0212341
-0.0286196
-0.0357359
-0.0426077
-0.0492742
0.113371
0.102679
0.0905431
0.080264
0.0714044
0.0626863
0.0537867
0.045005
0.0365547
0.0284174
0.0205177
0.0128313
0.00537257
-0.00184983
-0.00885588
-0.0158262
-0.022633
-0.0292305
-0.0356357
-0.0418773
0.105635
0.0960318
0.0852202
0.0759935
0.0680179
0.0602074
0.0522392
0.0443396
0.0367034
0.0293334
0.0221636
0.0151596
0.00831835
0.00164555
-0.00485042
-0.0110813
-0.0172985
-0.0234335
-0.0294245
-0.0352717
0.0987354
0.0901025
0.0804828
0.0722162
0.0650274
0.0580015
0.0508417
0.0437203
0.0368065
0.0301149
0.0235938
0.0172109
0.0109649
0.00486603
-0.00107785
-0.00686048
-0.0126221
-0.0183195
-0.0239047
-0.0293713
0.0925895
0.084823
0.076263
0.0688574
0.0623677
0.0560255
0.04957
0.0431346
0.0368628
0.0307745
0.0248295
0.0189993
0.0132795
0.00767609
0.00219114
-0.00317517
-0.00851706
-0.0137979
-0.0189887
-0.0240877
0.0871141
0.0801199
0.0724951
0.0658544
0.059985
0.0542426
0.0484037
0.0425735
0.0368725
0.0313215
0.0258896
0.020552
0.0153027
0.010145
0.00507823
9.83645e-05
-0.00486481
-0.00976495
-0.0145865
-0.0193372
0.0822297
0.0759231
0.0691201
0.0631555
0.0578364
0.0526229
0.0473261
0.0420307
0.0368369
0.0317649
0.0267907
0.021894
0.0170705
0.0123241
0.00765526
0.00305213
-0.00157916
-0.00614123
-0.0106268
-0.0150548
0.0778643
0.0721692
0.066087
0.0607188
0.0558883
0.0511431
0.0463251
0.0415035
0.0367613
0.0321165
0.0275499
0.0230433
0.0185906
0.0141909
0.00984468
0.0055552
0.00134864
-0.00285336
-0.00703381
-0.0111746
0.073954
0.0688031
0.0633527
0.0585103
0.0541144
0.0497855
0.0453927
0.0409926
0.0366545
0.032394
0.028196
0.0240457
0.0199384
0.0158746
0.0118575
0.00789161
0.00399401
9.21927e-05
-0.00380294
-0.00766937
0.0704433
0.0657769
0.0608808
0.0565022
0.0524937
0.0485367
0.0445229
0.0404998
0.0365247
0.0326116
0.0287486
0.0249239
0.0211337
0.017379
0.0136617
0.00998371
0.00635048
0.00271888
-0.000904387
-0.00450527
0.0672841
0.0630495
0.0586403
0.0546717
0.0510093
0.0473855
0.0437111
0.0400258
0.0363778
0.0327788
0.0292197
0.0256908
0.022189
0.018715
0.01527
0.0118547
0.00847101
0.00509111
0.00172085
-0.00163131
0.0644348
0.0605856
0.056605
0.0529995
0.049647
0.0463226
0.0429529
0.0395714
0.0362183
0.0329038
0.0296206
0.0263609
0.0231223
0.0199051
0.0167103
0.013538
0.0103885
0.00724214
0.00410538
0.000983755
0.0618597
0.058355
0.0547526
0.0514694
0.0483951
0.0453404
0.042245
0.0391372
0.0360507
0.0329943
0.0299621
0.0269479
0.0239496
0.0209677
0.0180031
0.0150557
0.0121249
0.00919503
0.00627474
0.00336778
0.059528
0.0563318
0.0530639
0.0500675
0.0472433
0.0444322
0.0415843
0.0387238
0.035879
0.0330574
0.0302543
0.0274648
0.0246871
0.0219216
0.0191684
0.0164273
0.0136973
0.0109657
0.00824601
0.00554019
0.0574131
0.0544936
0.0515223
0.0487816
0.0461829
0.043592
0.0409679
0.0383311
0.0357054
0.0330972
0.0305032
0.0279195
0.0253453
0.0227816
0.0202298
0.0176896
0.0151558
0.0125962
0.0100548
0.00753272
0.0554919
0.0528211
0.0501135
0.0476015
0.0452064
0.042815
0.0403935
0.0379592
0.0355322
0.0331179
0.0307134
0.0283152
0.025922
0.0235338
0.0211503
0.0187726
0.016405
0.0140731
0.0117298
0.00937825
0.0537449
0.051298
0.0488254
0.0465186
0.0443077
0.0420975
0.0398601
0.0376102
0.0353646
0.033128
0.0308985
0.0286732
0.0264518
0.0242348
0.0220232
0.0198184
0.0176221
0.0154388
0.01325
0.0110567
0.0521549
0.0499099
0.0476475
0.045525
0.0434813
0.041436
0.0393662
0.0372843
0.0352045
0.033131
0.0310622
0.0289961
0.0269323
0.0248714
0.0228141
0.020761
0.0187131
0.0166732
0.0146312
0.0125881
0.0507069
0.0486443
0.0465701
0.0446138
0.0427219
0.0408269
0.0389097
0.036981
0.0350526
0.0331282
0.0312066
0.0292864
0.0273672
0.0254497
0.0235344
0.0216221
0.0197133
0.0178097
0.0159053
0.0140009
0.0493876
0.04749
0.0455847
0.0437783
0.0420244
0.0402663
0.0384884
0.0366994
0.0349093
0.0331214
0.0313349
0.0295486
0.0277624
0.0259769
0.0241927
0.0224104
0.0206305
0.0188539
0.0170771
0.0153006
0.0481852
0.046437
0.0446836
0.0430126
0.0413843
0.0397511
0.0381001
0.0364386
0.034775
0.0331121
0.0314494
0.0297862
0.0281223
0.0264584
0.0247949
0.0231326
0.0214719
0.0198134
0.0181548
0.0164969
0.0470893
0.0454765
0.0438597
0.0423113
0.0407973
0.0392781
0.0377429
0.0361977
0.0346497
0.0331013
0.0315523
0.030002
0.0284506
0.0268985
0.0253464
0.0237949
0.0222443
0.0206952
0.0191462
0.0175979
0.0460909
0.0446006
0.0431069
0.0416695
0.0402596
0.0388444
0.0374147
0.0359758
0.0345335
0.0330899
0.0316451
0.0301985
0.0287504
0.0273012
0.0258517
0.0244022
0.0229533
0.0215054
0.0200575
0.0186106
0.0451818
0.0438024
0.0424198
0.0410828
0.0397677
0.0384472
0.0371139
0.0357719
0.0344261
0.0330784
0.031729
0.0303775
0.0290242
0.0276696
0.0263143
0.0249588
0.0236035
0.0222489
0.0208944
0.0195407
0.044355
0.0430759
0.0417933
0.0405473
0.0393184
0.0380842
0.0368386
0.0355849
0.0343271
0.0330671
0.0318049
0.0305404
0.029274
0.0280061
0.0267373
0.0254681
0.0241989
0.0229302
0.0216614
0.0203937
0.0436044
0.0424158
0.0412231
0.0400595
0.0389089
0.0377531
0.0365872
0.0354138
0.0342362
0.033056
0.0318734
0.0306885
0.0295014
0.0283128
0.0271232
0.025933
0.0247426
0.0235525
0.0223622
0.0211732
0.0429247
0.0418174
0.0407056
0.0396162
0.0385365
0.0374518
0.0363581
0.0352575
0.0341527
0.0330451
0.031935
0.0308225
0.0297079
0.0285918
0.0274746
0.026357
0.0252391
0.0241213
0.0230017
0.0218841
0.0423114
0.041277
0.0402375
0.0392148
0.038199
0.0371784
0.0361498
0.0351148
0.0340757
0.0330336
0.0319889
0.0309417
0.0298924
0.0288414
0.0277893
0.0267364
0.0256834
0.0246309
0.023581
0.022531
0.0417612
0.0407915
0.0398163
0.0388532
0.0378947
0.0369317
0.0359615
0.0349855
0.0340055
0.0330224
0.0320368
0.0310487
0.0300586
0.0290669
0.0280741
0.0270807
0.0260872
0.0250942
0.0241033
0.0231123
0.0412711
0.0403585
0.0394401
0.0385299
0.0376223
0.0367105
0.0357923
0.0348688
0.0339415
0.0330111
0.0320783
0.031143
0.0302059
0.0292672
0.0283275
0.0273872
0.0264468
0.0255068
0.0245681
0.0236299
0.0408394
0.0399764
0.0391073
0.0382434
0.0373807
0.0365138
0.0356413
0.034764
0.033883
0.0329992
0.0321129
0.0312244
0.0303341
0.0294424
0.0285497
0.0276565
0.0267632
0.0258702
0.0249783
0.0240871
0.0404647
0.0396439
0.0388172
0.0379931
0.0371689
0.0363409
0.0355079
0.0346705
0.0338298
0.0329864
0.0321406
0.0312928
0.0304433
0.0295925
0.0287408
0.0278887
0.0270366
0.0261848
0.025334
0.0244841
0.0401468
0.039361
0.0385695
0.0377786
0.0369868
0.0361914
0.0353917
0.0345881
0.0337814
0.0329722
0.0321609
0.0313477
0.0305329
0.0297171
0.0289005
0.0280836
0.0272667
0.0264502
0.0256347
0.0248201
0.0398863
0.0391282
0.0383646
0.0376004
0.0368346
0.0360656
0.0352928
0.0345167
0.0337378
0.0329567
0.0321736
0.031389
0.0306031
0.0298162
0.0290288
0.0282411
0.0274536
0.0266666
0.0258805
0.0250954
0.0396849
0.0389467
0.0382036
0.037459
0.0367126
0.0359633
0.0352108
0.0344555
0.0336979
0.0329383
0.032177
0.0314145
0.0306509
0.0298866
0.029122
0.0283573
0.0275929
0.0268292
0.0260664
0.0253047
0.0395456
0.0388195
0.0380891
0.0373571
0.0366234
0.0358873
0.0351487
0.0344079
0.0336651
0.0329208
0.0321753
0.0314287
0.0306814
0.0299336
0.0291856
0.0284378
0.0276903
0.0269436
0.0261977
0.025453
0.0394725
0.0387494
0.0380222
0.0372935
0.0365634
0.0358316
0.0350979
0.0343627
0.0336263
0.0328889
0.0321509
0.0314124
0.0306737
0.0299352
0.0291969
0.0284591
0.0277222
0.0269863
0.0262517
0.0255185
0.174187
0.17571
0.178509
0.182461
0.18735
0.19312
0.199569
0.20664
0.214079
0.221806
0.229453
0.236892
0.243563
0.249308
0.253254
0.255324
0.25407
0.249812
0.239695
0.225067
0.198407
0.173117
0.174574
0.177247
0.181009
0.185641
0.191073
0.197091
0.203622
0.210395
0.217308
0.223975
0.230247
0.235553
0.239716
0.241888
0.241955
0.238615
0.232002
0.220095
0.203741
0.181862
0.171941
0.173324
0.175854
0.179402
0.183745
0.188799
0.194342
0.200285
0.206344
0.212401
0.218058
0.223157
0.227132
0.22981
0.230401
0.228796
0.223933
0.21592
0.203662
0.187896
0.168958
0.170654
0.171957
0.174332
0.177651
0.181685
0.18634
0.191386
0.196719
0.202047
0.207235
0.211888
0.215835
0.218543
0.219834
0.21903
0.216008
0.210024
0.201142
0.18893
0.173776
0.156218
0.169252
0.17047
0.172682
0.175758
0.17947
0.183712
0.188247
0.192957
0.19755
0.201874
0.205549
0.20839
0.209921
0.20995
0.207941
0.203756
0.196941
0.187506
0.175365
0.160731
0.144216
0.167732
0.168859
0.1709
0.173723
0.177101
0.180914
0.184928
0.189009
0.192869
0.196343
0.199076
0.200872
0.201324
0.200232
0.197203
0.192096
0.184669
0.174918
0.162922
0.148899
0.133456
0.166089
0.167122
0.168984
0.171544
0.174577
0.177952
0.181437
0.184885
0.188022
0.190668
0.192504
0.193327
0.192803
0.190738
0.186859
0.181044
0.173194
0.163325
0.151605
0.138284
0.123907
0.164321
0.165256
0.166934
0.169221
0.1719
0.174829
0.177784
0.180604
0.183033
0.184884
0.185876
0.185807
0.184414
0.181519
0.176949
0.170611
0.162505
0.152678
0.141347
0.128759
0.115393
0.162426
0.163259
0.164747
0.166755
0.169076
0.171555
0.173981
0.176184
0.17793
0.179026
0.179234
0.17836
0.176206
0.172619
0.167504
0.160805
0.152585
0.142921
0.132049
0.120192
0.107777
0.160403
0.161131
0.162426
0.16415
0.166108
0.16814
0.170045
0.171648
0.172739
0.173128
0.172617
0.171029
0.168221
0.164071
0.158545
0.15162
0.143403
0.133987
0.123615
0.112478
0.100961
0.158251
0.158873
0.159971
0.16141
0.163006
0.164595
0.16599
0.167016
0.167488
0.167224
0.166064
0.163852
0.160493
0.155899
0.150079
0.143042
0.13492
0.125815
0.115965
0.105532
0.0948595
0.155971
0.156485
0.157385
0.158539
0.159776
0.160931
0.161834
0.162313
0.162205
0.161346
0.159607
0.15686
0.153049
0.148117
0.142106
0.135051
0.127095
0.118344
0.109027
0.0992738
0.0893926
0.153564
0.15397
0.154673
0.155545
0.15643
0.157165
0.157595
0.157559
0.156917
0.155522
0.153277
0.15008
0.145908
0.140733
0.134621
0.127621
0.119888
0.111519
0.102732
0.0936307
0.0844868
0.151034
0.151331
0.15184
0.152435
0.152977
0.153309
0.153293
0.152779
0.15165
0.14978
0.147099
0.143533
0.139085
0.133749
0.12761
0.120727
0.113254
0.105285
0.0970189
0.0885361
0.0800766
0.148383
0.148575
0.148892
0.149219
0.149431
0.149381
0.148946
0.147994
0.146427
0.144143
0.141095
0.137236
0.132586
0.127162
0.121057
0.114338
0.107154
0.0995904
0.0918295
0.0839306
0.0761045
0.145618
0.145707
0.145838
0.145908
0.145805
0.145395
0.144574
0.143225
0.141271
0.138633
0.135284
0.131199
0.126416
0.120964
0.114944
0.108424
0.101547
0.0943878
0.0871122
0.0797613
0.0725202
0.142744
0.142735
0.142687
0.142511
0.142112
0.14137
0.140196
0.138493
0.136203
0.133267
0.129679
0.125431
0.120572
0.115145
0.10925
0.102955
0.0963939
0.089633
0.0828201
0.0759818
0.0692799
0.139771
0.139668
0.13945
0.139044
0.138369
0.137322
0.135831
0.133817
0.13124
0.128062
0.124291
0.119934
0.115052
0.109691
0.103951
0.0978999
0.0916588
0.0852854
0.0789113
0.0725507
0.0663453
0.136707
0.136516
0.136138
0.135517
0.134589
0.133267
0.131496
0.129214
0.126399
0.123029
0.119127
0.114711
0.109847
0.104587
0.0990268
0.0932301
0.0873075
0.0813081
0.0753481
0.0694318
0.0636831
0.133563
0.13329
0.132765
0.131947
0.130789
0.129223
0.127207
0.1247
0.121692
0.118179
0.114191
0.109758
0.104949
0.0998172
0.0944538
0.0889176
0.0833084
0.0776675
0.0720969
0.0665931
0.0612645
0.130351
0.130004
0.129343
0.128347
0.126985
0.125205
0.122982
0.120289
0.117132
0.113518
0.109486
0.105073
0.100348
0.0953653
0.0902101
0.0849362
0.0796325
0.0743333
0.0691279
0.0640067
0.0590642
0.127084
0.12667
0.125887
0.124734
0.123193
0.121231
0.118835
0.115996
0.112729
0.109052
0.105011
0.100648
0.0960316
0.0912142
0.0862745
0.0812611
0.076253
0.0712782
0.0664144
0.0616477
0.0570605
0.123777
0.123303
0.122414
0.121123
0.119428
0.117314
0.11478
0.111829
0.108489
0.104784
0.100766
0.0964785
0.0919887
0.0873476
0.0826266
0.0778694
0.0731456
0.0684776
0.0639329
0.0594945
0.0552342
0.120446
0.11992
0.118938
0.117529
0.115707
0.113469
0.110829
0.107801
0.104418
0.100716
0.0967462
0.0925553
0.0882068
0.0837493
0.0792475
0.0747401
0.0702882
0.0659095
0.0616624
0.057528
0.0535686
0.117106
0.116536
0.115476
0.11397
0.112044
0.109711
0.106994
0.103918
0.100523
0.096849
0.0929492
0.0888709
0.084674
0.080404
0.0761192
0.0718537
0.0676607
0.0635542
0.0595843
0.0557312
0.0520488
0.113775
0.113169
0.112045
0.110461