/*--------------------------------*- C++ -*----------------------------------*\
  =========                 |
  \\      /  F ield         | OpenFOAM: The Open Source CFD Toolbox
   \\    /   O peration     | Website:  https://openfoam.org
    \\  /    A nd           | Version:  7
     \\/     M anipulation  |
\*---------------------------------------------------------------------------*/
FoamFile
{
    version     2.0;
    format      ascii;
    class       surfaceScalarField;
    location    "35";
    object      phi;
}
// * * * * * * * * * * * * * * * * * * * * * * * * * * * * * * * * * * * * * //

dimensions      [0 3 -1 0 0 0 0];

internalField   nonuniform List<scalar> 
12526
(
7.7638e-05
7.91706e-05
8.03483e-05
-7.83982e-07
8.11323e-05
0.000186142
-3.02424e-07
8.14347e-05
0.000179597
3.34665e-07
8.11001e-05
9.99234e-06
0.00016994
0.000189401
1.1212e-06
7.99789e-05
1.45511e-05
0.00015651
5.16881e-05
0.000152264
5.16823e-05
2.1486e-06
7.78303e-05
2.00986e-05
0.00013856
6.70666e-05
0.000105296
-4.07222e-05
3.46111e-06
7.43692e-05
2.67986e-05
0.000115222
8.51729e-05
4.69218e-05
0.00019731
-0.000152859
-0.000512466
5.10141e-06
6.92678e-05
3.47838e-05
8.55399e-05
0.000106221
-2.45149e-05
0.000240325
-0.000286963
0.000460738
-0.000732878
-0.00138893
7.10349e-06
6.21643e-05
4.41437e-05
4.84998e-05
0.000130293
-0.000110665
0.000288306
-0.000444976
0.000541694
-0.000986266
0.000905374
-0.00175261
-0.00272084
9.49039e-06
5.26739e-05
5.49157e-05
3.07447e-06
0.000157319
-0.000213068
0.00034065
-0.000628307
0.000626371
-0.00127199
0.00102034
-0.00214658
0.00149871
-0.00319922
-0.0043308
1.22734e-05
4.04005e-05
6.70796e-05
-5.17317e-05
0.000187051
-0.00033304
0.000396326
-0.000837581
0.000711852
-0.00158751
0.00112733
-0.00256205
0.001604
-0.00367589
0.00208362
-0.00481041
-0.00585636
1.54518e-05
2.49487e-05
8.0553e-05
-0.000116833
0.000219055
-0.000471542
0.000453876
-0.0010724
0.000794662
-0.0019283
0.00122103
-0.00298842
0.0016825
-0.00413735
0.00212196
-0.00524988
0.0025046
-0.006239
-0.00710354
1.90123e-05
5.93635e-06
9.51879e-05
-0.000193008
0.000252705
-0.00062906
0.000511464
-0.00133116
0.000871108
-0.00228794
0.0012971
-0.00341442
0.00173232
-0.00457257
0.00212627
-0.00564383
0.00245683
-0.00656956
-0.00737397
0.00272726
2.29279e-05
-1.69916e-05
0.000110768
-0.000280848
0.000287187
-0.000805478
0.000566977
-0.00161095
0.000937713
-0.00265868
0.0013527
-0.0038294
0.00175378
-0.00497366
0.00210053
-0.00599058
0.00238284
-0.00685187
-0.00760221
0.00261109
2.71571e-05
-4.41487e-05
0.000127006
-0.000380697
0.000321517
-0.00099999
0.000618194
-0.00190763
0.000991623
-0.00303211
0.00138657
-0.00422434
0.0017488
-0.00533589
0.00204935
-0.00629113
0.00228836
-0.00709089
-0.0077948
0.00248095
3.16418e-05
-7.57905e-05
0.000143547
-0.000492602
0.000354591
-0.00121103
0.000662996
-0.00221603
0.00103088
-0.00339999
0.00139891
-0.00459237
0.0017203
-0.00565728
0.0019774
-0.00654823
0.00217832
-0.00729181
-0.00795725
0.00234077
3.63072e-05
-0.000112098
0.000159977
-0.000616273
0.000385243
-0.0014363
0.000699575
-0.00253037
0.00105451
-0.00375493
0.001391
-0.00492886
0.00167165
-0.00593794
0.00188898
-0.00676556
0.00205677
-0.0074596
-0.008094
0.00219352
4.10624e-05
-0.00015316
0.000175836
-0.000751046
0.000412336
-0.0016728
0.000726593
-0.00284462
0.00106248
-0.00409081
0.00136483
-0.00523121
0.0016063
-0.0061794
0.00178788
-0.00694714
0.00192691
-0.00759864
-0.00820848
0.0020414
4.58019e-05
-0.000198962
0.000190638
-0.000895882
0.000434853
-0.00191701
0.000743264
-0.00315303
0.00105547
-0.00440301
0.00132276
-0.0054985
0.00152747
-0.00638412
0.00167725
-0.00709692
0.00179124
-0.00771262
-0.00830328
0.00188603
5.04097e-05
-0.000249372
0.000203902
-0.00104937
0.000451972
-0.00216508
0.000749349
-0.00345041
0.00103469
-0.00468836
0.00126725
-0.00573106
0.00143808
-0.00655495
0.0015597
-0.00721853
0.00165164
-0.00780456
-0.00838024
0.0017286
5.47632e-05
-0.000304135
0.000215178
-0.00120979
0.000463125
-0.00241303
0.000745086
-0.00373237
0.00100169
-0.00494496
0.00120071
-0.00593008
0.00134065
-0.00669489
0.00143729
-0.00731517
0.00150953
-0.0078768
-0.0084407
0.00156999
5.87393e-05
-0.000362874
0.000224075
-0.00137513
0.000468015
-0.00265697
0.000731087
-0.00399544
0.00095813
-0.00517201
0.00112533
-0.00609728
0.00123729
-0.00680685
0.00131164
-0.00738951
0.00136599
-0.00793115
-0.00848558
0.00141086
6.222e-05
-0.000425094
0.000230287
-0.00154319
0.000466611
-0.0028933
0.000708221
-0.00423705
0.000905699
-0.00536948
0.0010431
-0.00623468
0.00112975
-0.0068935
0.00118402
-0.00744378
0.00122181
-0.00796894
-0.00851551
0.00125174
6.50977e-05
-0.000490192
0.000233604
-0.0017117
0.000459111
-0.0031188
0.000677509
-0.00445545
0.000846014
-0.00553799
0.00095573
-0.0063444
0.00101943
-0.0069572
0.00105539
-0.00747974
0.00107761
-0.00799116
-0.00853092
0.00109302
6.72799e-05
-0.000557472
0.000233921
-0.00187834
0.000445894
-0.00333077
0.000640037
-0.00464959
0.000780565
-0.00567852
0.000864672
-0.00642851
0.000907479
-0.00700001
0.000926517
-0.00749878
0.000933845
-0.00799849
-0.00853209
0.000935007
6.86933e-05
-0.000626165
0.000231234
-0.00204088
0.000427467
-0.00352701
0.000596891
-0.00481902
0.000710687
-0.00579231
0.000771145
-0.00648897
0.000794788
-0.00702365
0.000797972
-0.00750196
0.000790896
-0.00799141
-0.00851913
0.000777942
6.92857e-05
-0.000695451
0.000225628
-0.00219722
0.000404418
-0.0037058
0.000549113
-0.00496371
0.000637554
-0.00588075
0.000676157
-0.00652757
0.000682067
-0.00702956
0.000670205
-0.0074901
0.000649057
-0.00797026
-0.00849209
0.000622013
6.90271e-05
-0.000764478
0.000217263
-0.00234546
0.00037737
-0.0038659
0.00049767
-0.00508401
0.00056218
-0.00594526
0.000580535
-0.00654592
0.000569881
-0.00701891
0.000543561
-0.00746378
0.000508572
-0.00793527
-0.00845089
0.000467372
6.79087e-05
-0.000832387
0.000206357
-0.00248391
0.000346951
-0.0040065
0.000443441
-0.0051805
0.000485428
-0.00598725
0.00048496
-0.00654546
0.000458702
-0.00699265
0.000418348
-0.00742343
0.00036959
-0.00788652
-0.00839548
0.000314178
6.59426e-05
-0.000898329
0.000193164
-0.00261113
0.000313768
-0.0041271
0.000387205
-0.00525394
0.000408025
-0.00600807
0.000389989
-0.00652742
0.000348949
-0.00695161
0.00029496
-0.00736944
0.000232156
-0.00782371
-0.00832566
0.000162344
6.31599e-05
-0.000961489
0.000177963
-0.00272593
0.000278393
-0.00422753
0.000329646
-0.00530519
0.000330576
-0.006009
0.000296059
-0.0064929
0.000240945
-0.00689649
0.000173839
-0.00730233
9.70689e-05
-0.00774694
-0.0082356
7.00605e-06
5.96106e-05
-0.0010211
0.000161067
-0.00282739
0.000241358
-0.00430782
0.000271355
-0.00533519
0.000253579
-0.00599122
0.000203517
-0.00644284
0.000134873
-0.00682785
5.46928e-05
-0.00722215
-3.379e-05
-0.00765846
-0.00813582
-0.000133568
5.53579e-05
-0.00107646
0.000142768
-0.0029148
0.000203146
-0.0043682
0.00021284
-0.00534489
0.000177442
-0.00595583
0.000112648
-0.00637805
3.07416e-05
-0.00674594
-6.18452e-05
-0.00712957
-0.000164676
-0.00755563
-0.00802493
-0.000275573
5.04761e-05
-0.00112693
0.000123347
-0.00298767
0.000164192
-0.00440905
0.000154529
-0.00533522
0.000102494
-0.00590379
2.35913e-05
-0.00629914
-7.06118e-05
-0.00665174
-0.000175605
-0.00702457
-0.000291435
-0.0074398
-0.00790081
-0.000415554
4.50484e-05
-0.00117198
0.000103078
-0.0030457
0.000124882
-0.00443085
9.67779e-05
-0.00530712
2.90344e-05
-0.00583605
-6.30995e-05
-0.00620701
-0.000169552
-0.00654529
-0.000286865
-0.00690726
-0.000415168
-0.00731149
-0.00776338
-0.000552597
3.91633e-05
-0.00121115
8.22359e-05
-0.00308877
8.55411e-05
-0.00443416
3.99591e-05
-0.00526154
-4.27077e-05
-0.00575338
-0.000147618
-0.0061021
-0.00026602
-0.00642688
-0.000395282
-0.006778
-0.000535907
-0.00717087
-0.00761291
-0.000686374
3.2904e-05
-0.00124405
6.10918e-05
-0.00311696
4.65042e-05
-0.00441957
-1.56492e-05
-0.00519938
-0.000112578
-0.00565645
-0.000229849
-0.00598483
-0.000359851
-0.00629688
-0.000500769
-0.00663708
-0.000653518
-0.00701812
-0.00744991
-0.000816522
2.63659e-05
-0.00127042
3.98315e-05
-0.00313042
8.90043e-06
-0.00438864
-7.01766e-05
-0.00512031
-0.000180552
-0.00554608
-0.00030967
-0.00585571
-0.000450953
-0.0061556
-0.000603263
-0.00648477
-0.000767848
-0.00685353
-0.00727509
-0.000942669
1.97518e-05
-0.00129017
1.8666e-05
-0.00312934
-3.00855e-05
-0.00433989
-0.000123291
-0.0050271
-0.000246447
-0.00542292
-0.000386992
-0.00571517
-0.000539255
-0.00600334
-0.000702696
-0.00632133
-0.000878785
-0.00667745
-0.00708897
-0.0010649
1.3006e-05
-0.00130317
-4.84648e-07
-0.00311585
-6.73747e-05
-0.004273
-0.000174937
-0.00491954
-0.000310198
-0.00528766
-0.000461752
-0.00556361
-0.000624722
-0.00584037
-0.000799038
-0.00614701
-0.000986371
-0.00649011
-0.00689137
-0.00118397
5.64112e-06
-0.00130881
-2.40435e-05
-0.00308616
-0.000103832
-0.00419321
-0.000224835
-0.00479853
-0.000371708
-0.00514079
-0.00053391
-0.00540141
-0.000707403
-0.00566687
-0.000892443
-0.00596197
-0.00109055
-0.00629201
-0.00668242
-0.00129949
-1.94068e-06
-0.00130687
-4.52137e-05
-0.00304289
-0.000139191
-0.00409923
-0.000272882
-0.00466484
-0.000430857
-0.00498281
-0.000603396
-0.00522887
-0.000787366
-0.0054829
-0.000983312
-0.00576603
-0.00119101
-0.00608431
-0.00646391
-0.00140953
-8.82574e-06
-0.00129805
-6.55529e-05
-0.00298616
-0.000173282
-0.0039915
-0.000319018
-0.00451911
-0.000487556
-0.00481427
-0.000670074
-0.00504635
-0.000864354
-0.00528862
-0.00107148
-0.00555891
-0.00129206
-0.00586372
-0.00624675
-0.00150922
-1.58508e-05
-0.0012822
-8.52153e-05
-0.0029168
-0.000206019
-0.0038707
-0.000363164
-0.00436196
-0.000541735
-0.0046357
-0.000733803
-0.00485429
-0.000937772
-0.00508465
-0.00115388
-0.00534279
-0.00137962
-0.00563798
-0.00597694
-0.00164944
-2.27628e-05
-0.00125943
-0.000104191
-0.00283537
-0.000237342
-0.00373755
-0.000405264
-0.00419404
-0.000593362
-0.00444761
-0.000794512
-0.00465314
-0.00100728
-0.00487189
-0.00123133
-0.00511874
-0.00146857
-0.00540074
-0.00570976
-0.00173575
-2.94945e-05
-0.00122994
-0.000122427
-0.00274244
-0.000267201
-0.00359277
-0.000445274
-0.00401597
-0.000642399
-0.00425048
-0.0008522
-0.00444333
-0.00107358
-0.00465051
-0.00130701
-0.00488531
-0.00155581
-0.00515194
-0.00544024
-0.00182533
-3.60059e-05
-0.00119393
-0.000139865
-0.00263858
-0.000295554
-0.00343708
-0.000483155
-0.00382837
-0.000688798
-0.00404484
-0.000906774
-0.00422536
-0.00113633
-0.00442096
-0.00137841
-0.00464322
-0.00163598
-0.00489437
-0.00516528
-0.00191094
-4.22647e-05
-0.00115167
-0.000156454
-0.00252439
-0.000322361
-0.00327118
-0.000518882
-0.00363185
-0.000732542
-0.00383118
-0.000958259
-0.00399964
-0.00119564
-0.00418358
-0.00144593
-0.00439294
-0.00171148
-0.00462882
-0.00488369
-0.00199307
-4.82426e-05
-0.00110343
-0.00017215
-0.00240048
-0.000347591
-0.00309574
-0.000552431
-0.00342701
-0.00077361
-0.00361
-0.00100662
-0.00376663
-0.0012514
-0.0039388
-0.00150931
-0.00413502
-0.00178233
-0.0043558
-0.004595
-0.00207102
-5.39148e-05
-0.00104951
-0.000186918
-0.00226748
-0.000371217
-0.00291144
-0.000583789
-0.00321443
-0.000811988
-0.0033818
-0.00105185
-0.00352677
-0.00130358
-0.00368707
-0.00156862
-0.00386999
-0.00184872
-0.00407569
-0.00429919
-0.00214453
-5.92591e-05
-0.000990253
-0.000200726
-0.00212601
-0.000393217
-0.00271894
-0.000612941
-0.00299471
-0.000847666
-0.00314707
-0.00109392
-0.00328051
-0.00135215
-0.00342884
-0.00162382
-0.00359831
-0.00191064
-0.00378887
-0.00399647
-0.00221336
-6.42565e-05
-0.000925996
-0.000213549
-0.00197672
-0.000413575
-0.00251892
-0.00063988
-0.00276841
-0.000880635
-0.00290632
-0.00113282
-0.00302833
-0.00139706
-0.00316459
-0.00167491
-0.00332046
-0.00196803
-0.00349576
-0.00368718
-0.00227733
-6.88905e-05
-0.000857105
-0.000225368
-0.00182024
-0.000432279
-0.00231201
-0.0006646
-0.00253609
-0.000910888
-0.00266003
-0.00116852
-0.0027707
-0.00143831
-0.0028948
-0.00172186
-0.00303692
-0.00202084
-0.00319678
-0.00337174
-0.00233627
-7.31469e-05
-0.000783959
-0.000236166
-0.00165722
-0.00044932
-0.00209885
-0.000687099
-0.00229831
-0.000938421
-0.00240871
-0.00120102
-0.0025081
-0.00147587
-0.00261995
-0.00176463
-0.00274816
-0.00206898
-0.00289243
-0.00305065
-0.00239007
-7.70138e-05
-0.000706945
-0.00024593
-0.00148831
-0.000464692
-0.00188009
-0.000707375
-0.00205562
-0.000963234
-0.00215285
-0.00123032
-0.00224102
-0.00150973
-0.00234053
-0.00180318
-0.00245471
-0.00211239
-0.00258322
-0.00272442
-0.00243862
-8.0481e-05
-0.000626464
-0.000254649
-0.00131414
-0.00047839
-0.00165635
-0.000725431
-0.00180858
-0.000985327
-0.00189295
-0.0012564
-0.00196995
-0.00153987
-0.00205706
-0.00183749
-0.00215709
-0.00215103
-0.00226968
-0.00239362
-0.00248183
-8.354e-05
-0.000542924
-0.000262314
-0.00113537
-0.000490414
-0.00142825
-0.00074127
-0.00155773
-0.00100471
-0.00162952
-0.00127927
-0.00169538
-0.00156629
-0.00177005
-0.00186755
-0.00185583
-0.00218485
-0.00195237
-0.00205883
-0.00251964
-8.61835e-05
-0.00045674
-0.000268919
-0.000952631
-0.00050076
-0.00119641
-0.000754896
-0.00130359
-0.00102138
-0.00136303
-0.00129895
-0.00141781
-0.001589
-0.00148001
-0.00189336
-0.00155147
-0.00221385
-0.00163189
-0.00172067
-0.00255201
-8.8405e-05
-0.000368335
-0.000274457
-0.000766579
-0.000509428
-0.000961438
-0.000766312
-0.00104671
-0.00103536
-0.00109399
-0.00131545
-0.00113771
-0.00160803
-0.00118743
-0.00191494
-0.00124455
-0.00223803
-0.0013088
-0.00137977
-0.00257893
-9.01988e-05
-0.000278136
-0.000278921
-0.000577857
-0.000516413
-0.000723946
-0.000775518
-0.000787601
-0.00104664
-0.000822866
-0.00132879
-0.000855568
-0.00162341
-0.000892804
-0.00193237
-0.000935595
-0.00225748
-0.000983689
-0.0010368
-0.00260045
-9.15596e-05
-0.000186577
-0.000282304
-0.000387112
-0.000521709
-0.000484541
-0.000782509
-0.0005268
-0.00105523
-0.000550144
-0.00133897
-0.000571831
-0.00163519
-0.000596582
-0.00194572
-0.000625064
-0.00227233
-0.00065708
-0.000692395
-0.00261673
-9.24824e-05
-9.40943e-05
-0.000284598
-0.000194996
-0.000525306
-0.000243833
-0.000787273
-0.000264834
-0.00106111
-0.000276303
-0.00134599
-0.000286959
-0.00164338
-0.000299191
-0.00195509
-0.000313349
-0.00228282
-0.000329358
-0.000347016
-0.00262819
-9.29627e-05
-1.13161e-06
-0.000285795
-2.16436e-06
-0.00052719
-2.43742e-06
-0.000789787
-2.23693e-06
-0.00106425
-1.83783e-06
-0.00134979
-1.42166e-06
-0.00164791
-1.06654e-06
-0.00196046
-8.02192e-07
-0.00228917
-6.46841e-07
-6.31513e-07
-0.00263556
-9.29967e-05
9.1865e-05
-0.000285885
0.000190724
-0.000527347
0.000239025
-0.000790025
0.000260441
-0.0010646
0.000272734
-0.00135028
0.000284262
-0.00164862
0.00029727
-0.00196149
0.000312072
-0.00229073
0.000328594
0.000346775
-0.00263814
-9.25817e-05
0.000184447
-0.000284862
0.000383004
-0.000525763
0.000479926
-0.000787962
0.000522639
-0.0010621
0.00054687
-0.00134736
0.000569525
-0.00164528
0.000595183
-0.0019577
0.000624497
-0.00228641
0.000657303
0.000693402
-0.00263304
-9.1717e-05
0.000276164
-0.000282722
0.000574009
-0.000522431
0.000719635
-0.000783585
0.000783793
-0.00105674
0.000820025
-0.00134101
0.000853797
-0.00163788
0.000892056
-0.00194918
0.000935793
-0.00227663
0.000984749
0.0010386
-0.00262182
-9.04034e-05
0.000366567
-0.000279465
0.000763071
-0.000517347
0.000957517
-0.00077689
0.00104334
-0.00104852
0.00109166
-0.00133125
0.00113652
-0.00162651
0.00118732
-0.00193609
0.00124538
-0.00226173
0.00131039
0.00138188
-0.00260502
-8.86439e-05
0.000455211
-0.000275094
0.000949521
-0.000510514
0.00119294
-0.000767882
0.0013007
-0.00103745
0.00136123
-0.0013181
0.00141717
-0.00161121
0.00148042
-0.00191855
0.00155272
-0.00224188
0.00163371
0.00172276
-0.00258275
-8.64432e-05
0.000541654
-0.000269614
0.00113269
-0.000501937
0.00142526
-0.000756571
0.00155534
-0.00102356
0.00162822
-0.00130162
0.00169523
-0.00159205
0.00177086
-0.00189664
0.00185731
-0.00221714
0.00195421
0.0020607
-0.00255508
-8.38078e-05
0.000625462
-0.000263034
0.00131192
-0.000491627
0.00165385
-0.00074297
0.00180668
-0.00100687
0.00189211
-0.00128182
0.00197018
-0.00156909
0.00205813
-0.00187042
0.00215864
-0.00218758
0.00227137
0.00239517
-0.00252205
-8.07455e-05
0.000706208
-0.000255366
0.00148654
-0.000479593
0.00187808
-0.000727091
0.00205418
-0.000987384
0.00215241
-0.00125875
0.00224155
-0.00154235
0.00234173
-0.00183992
0.00245621
-0.00215324
0.00258468
0.00272563
-0.0024837
-7.72658e-05
0.000783473
-0.00024662
0.00165589
-0.000465846
0.00209731
-0.000708947
0.00229728
-0.000965138
0.0024086
-0.00123242
0.00250883
-0.00151188
0.00262119
-0.0018052
0.00274953
-0.00211415
0.00289363
0.00305154
-0.00244006
-7.33794e-05
0.000856853
-0.000236812
0.00181932
-0.000450399
0.00231089
-0.000688549
0.00253543
-0.000940141
0.00266019
-0.00120287
0.00277157
-0.0014777
0.00289601
-0.00176628
0.00303811
-0.00207037
0.00319772
0.00337235
-0.00239118
-6.90987e-05
0.000925952
-0.000225956
0.00197618
-0.000433263
0.0025182
-0.00066591
0.00276808
-0.000912409
0.00290669
-0.00117011
0.00302927
-0.00143983
0.00316573
-0.00172319
0.00332147
-0.00202193
0.00349646
0.00368756
-0.00233714
-6.44377e-05
0.000990389
-0.000214072
0.00212582
-0.000414454
0.00271858
-0.000641039
0.00299466
-0.000881956
0.00314761
-0.00113416
0.00328148
-0.00139831
0.00342988
-0.00167597
0.00359913
-0.00196888
0.00378937
0.00399669
-0.00227801
-5.94122e-05
0.0010498
-0.00020118
0.00226758
-0.000393985
0.00291139
-0.000613947
0.00321462
-0.000848793
0.00338245
-0.00109504
0.00352772
-0.00135315
0.00368799
-0.00162465
0.00387063
-0.00191129
0.00407601
0.00429931
-0.00221391
-5.40401e-05
0.00110384
-0.000187303
0.00240085
-0.000371876
0.00309596
-0.000584647
0.0034274
-0.000812933
0.00361074
-0.00105277
0.00376756
-0.00130438
0.0039396
-0.00156925
0.0041355
-0.00184922
0.00435598
0.00459508
-0.00214499
-4.83415e-05
0.00115218
-0.000172469
0.00252497
-0.000348144
0.00327163
-0.00055315
0.0036324
-0.000774387
0.00383198
-0.00100736
0.00400053
-0.00125202
0.00418426
-0.00150978
0.00439327
-0.00178269
0.00462889
0.0048838
-0.00207141
-4.23391e-05
0.00119452
-0.00015671
0.00263935
-0.000322816
0.00343774
-0.000519471
0.00382906
-0.000733169
0.00404567
-0.000958832
0.00422619
-0.0011961
0.00442153
-0.00144626
0.00464343
-0.00171172
0.00489435
0.00516548
-0.0019934
-3.60585e-05
0.00123058
-0.000140063
0.00274335
-0.000295917
0.00359359
-0.000483628
0.00401677
-0.000689293
0.00425134
-0.000907209
0.0044441
-0.00113666
0.00465098
-0.00137864
0.00488541
-0.00163611
0.00515183
0.00544059
-0.00191122
-2.95279e-05
0.00126011
-0.000122574
0.0028364
-0.000267483
0.0037385
-0.000445644
0.00419493
-0.000642778
0.00444847
-0.000852517
0.00465384
-0.0010738
0.00487226
-0.00130713
0.00511874
-0.00155582
0.00540052
0.00571025
-0.00182548
-2.27798e-05
0.00128289
-0.000104293
0.00291791
-0.000237552
0.00387176
-0.000405544
0.00436292
-0.000593642
0.00463657
-0.000794732
0.00485493
-0.00100741
0.00508493
-0.0012314
0.00534273
-0.00146863
0.00563775
0.00597737
-0.00173575
-1.58542e-05
0.00129874
-8.5279e-05
0.00298733
-0.000206167
0.00399265
-0.000363367
0.00452012
-0.000541934
0.00481514
-0.000733944
0.00504694
-0.000937819
0.00528881
-0.00115383
0.00555874
-0.0013795
0.00586342
0.00624644
-0.00164856
-8.81809e-06
0.00130756
-6.5584e-05
0.0030441
-0.000173377
0.00410044
-0.000319156
0.0046659
-0.000487688
0.00498367
-0.000670157
0.00522941
-0.00086436
0.00548301
-0.0010714
0.00576578
-0.00129199
0.00608401
0.00646399
-0.00150954
-1.92543e-06
0.00130949
-4.52176e-05
0.00308739
-0.000139242
0.00419447
-0.000272967
0.00479962
-0.000430937
0.00514164
-0.000603439
0.00540192
-0.000787367
0.00566694
-0.000983302
0.00596172
-0.0011911
0.0062918
0.00668257
-0.00140968
5.66521e-06
0.00130382
-2.40242e-05
0.00311708
-0.000103847
0.00427429
-0.000224878
0.00492065
-0.000371748
0.00528851
-0.000533927
0.00556409
-0.000707406
0.00584042
-0.000892474
0.00614678
-0.00109067
0.00648999
0.00689151
-0.00129961
1.30334e-05
0.00129079
-4.48094e-07
0.00313056
-6.73606e-05
0.0043412
-0.000174945
0.00502824
-0.000310207
0.00542377
-0.00046175
0.00571564
-0.000624722
0.00600339
-0.000799077
0.00632114
-0.000986476
0.00667739
0.00708912
-0.00118408
1.97813e-05
0.00127101
1.87126e-05
0.00313163
-3.0047e-05
0.00438996
-0.000123271
0.00512146
-0.000246431
0.00554693
-0.000386973
0.00585618
-0.000539249
0.00615567
-0.00070273
0.00648462
-0.000878862
0.00685353
0.00727521
-0.00106495
2.63973e-05
0.00124461
3.98886e-05
0.00311814
8.95256e-06
0.0044209
-7.01346e-05
0.00520055
-0.000180516
0.00565731
-0.000309638
0.0059853
-0.000450939
0.00629697
-0.000603286
0.00663697
-0.000767893
0.00701813
0.00744996
-0.000942647
3.29366e-05
0.00121167
6.11566e-05
0.00308992
4.65746e-05
0.00443548
-1.55882e-05
0.00526271
-0.000112526
0.00575425
-0.000229806
0.00610258
-0.000359829
0.00642699
-0.00050078
0.00677792
-0.000653532
0.00717088
0.00761288
-0.000816447
3.91962e-05
0.00117248
8.2306e-05
0.00304681
8.56229e-05
0.00443216
4.00334e-05
0.0053083
-4.26437e-05
0.00583693
-0.000147567
0.0062075
-0.000265991
0.00654541
-0.000395279
0.00690721
-0.000535893
0.0073115
0.00776325
-0.000686265
4.50808e-05
0.0011274
0.000103151
0.00298874
0.000124973
0.00441034
9.68638e-05
0.00533641
2.91083e-05
0.00590468
-6.30418e-05
0.00629965
-0.000169516
0.00665189
-0.000286848
0.00702454
-0.000415131
0.00743978
0.00790059
-0.000552469
5.05076e-05
0.00107689
0.000123422
0.00291583
0.000164289
0.00436948
0.000154624
0.00534607
0.000102576
0.00595673
2.36545e-05
0.00637858
-7.05713e-05
0.00674611
-0.000175577
0.00712954
-0.000291381
0.00755559
0.00802462
-0.000415417
5.53881e-05
0.0010215
0.000142843
0.00282837
0.000203247
0.00430907
0.000212941
0.00533638
0.00017753
0.00599214
0.000112714
0.00644339
3.07862e-05
0.00682804
-6.1811e-05
0.00722214
-0.000164611
0.00765839
0.00813545
-0.000275439
5.96392e-05
0.00096186
0.000161142
0.00272687
0.000241461
0.00422875
0.00027146
0.00530638
0.00025367
0.00600993
0.000203586
0.00649347
0.000134919
0.00689671
5.47315e-05
0.00730233
-3.37184e-05
0.00774684
0.00823518
-0.000133445
6.31866e-05
0.000898674
0.000178036
0.00261202
0.000278497
0.00412829
0.000329754
0.00525512
0.00033067
0.00600902
0.000296129
0.00652802
0.000240991
0.00695185
0.000173877
0.00736944
9.71362e-05
0.00782358
0.00832517
7.14683e-06
6.59674e-05
0.000832706
0.000193234
0.00248475
0.000313872
0.00400765
0.000387315
0.00518168
0.00040812
0.00598821
0.000390058
0.00654608
0.000348992
0.00699291
0.000294995
0.00742344
0.000232214
0.00788636
0.00839494
0.00016244
6.79315e-05
0.000764775
0.000206425
0.00234626
0.000347053
0.00386703
0.000443551
0.00508518
0.000485522
0.00594624
0.000485027
0.00654657
0.00045874
0.0070192
0.000418377
0.0074638
0.000369636
0.0079351
0.00845032
0.000314254
6.90477e-05
0.000695727
0.000217328
0.00219798
0.00037747
0.00370688
0.000497779
0.00496487
0.000562273
0.00588175
0.000580598
0.00652825
0.000569913
0.00702988
0.000543579
0.00749014
0.000508602
0.00797007
0.0084915
0.000467423
6.93043e-05
0.000626423
0.000225688
0.0020416
0.000404514
0.00352806
0.00054922
0.00482017
0.000637645
0.00579332
0.000676216
0.00648968
0.000682091
0.00702401
0.000670211
0.00750202
0.000649068
0.00799122
0.00851853
0.000622035
6.87099e-05
0.000557713
0.00023129
0.00187902
0.00042756
0.00333179
0.000596996
0.00465073
0.000710775
0.00567954
0.000771198
0.00642925
0.000794802
0.0070004
0.000797963
0.00749886
0.000790885
0.0079983
0.00853149
0.000777933
6.72945e-05
0.000490418
0.000233973
0.00171234
0.000445982
0.00311978
0.000640138
0.00445658
0.000780649
0.00553903
0.000864719
0.00634518
0.000907483
0.00695764
0.00092649
0.00747985
0.000933809
0.00799098
0.00853033
0.000934964
6.51106e-05
0.000425308
0.000233652
0.0015438
0.000459195
0.00289424
0.000677607
0.00423816
0.000846095
0.00537055
0.000955771
0.00623551
0.00101942
0.00689399
0.00105535
0.00744393
0.00107754
0.00796878
0.00851493
0.00109294
6.22313e-05
0.000363077
0.00023033
0.0013757
0.00046669
0.00265788
0.000708315
0.00399654
0.000905776
0.00517308
0.00104314
0.00609815
0.00112973
0.0068074
0.00118395
0.0073897
0.00122172
0.00793102
0.00848503
0.00125162
5.87492e-05
0.000304327
0.000224114
0.00121033
0.000468088
0.0024139
0.000731176
0.00373345
0.000958203
0.00494606
0.00112536
0.00593099
0.00123726
0.00669549
0.00131155
0.00731541
0.00136586
0.0078767
0.00844019
0.0014107
5.47718e-05
0.000249556
0.000215212
0.00104989
0.000463193
0.00216592
0.000745171
0.00345147
0.00100176
0.00468947
0.00120073
0.00573202
0.00134061
0.00655562
0.00143718
0.00721885
0.00150937
0.00780451
0.00837977
0.00156978
5.04172e-05
0.000199138
0.000203933
0.000896376
0.000452035
0.00191782
0.000749429
0.00315408
0.00103476
0.00440414
0.00126727
0.00549951
0.00143803
0.00638486
0.00155956
0.00709731
0.00165144
0.00771264
0.00830286
0.00172835
4.58085e-05
0.00015333
0.000190666
0.000751519
0.000434911
0.00167357
0.000743341
0.00284565
0.00105553
0.00409195
0.00132277
0.00523227
0.0015274
0.00618023
0.0016771
0.00694762
0.001791
0.00759873
0.00820814
0.00188572
4.10682e-05
0.000112262
0.000175861
0.000616726
0.00041239
0.00143704
0.000726668
0.00253137
0.00106254
0.00375608
0.00136484
0.00492997
0.00160622
0.00593885
0.0017877
0.00676614
0.00192664
0.00745979
0.00809375
0.00204104
3.63125e-05
7.59492e-05
0.00016
0.000493038
0.000385294
0.00121175
0.000699648
0.00221702
0.00105458
0.00340115
0.00139101
0.00459354
0.00167157
0.00565829
0.00188878
0.00654892
0.00205646
0.00729212
0.0079571
0.0021931
3.16468e-05
4.43024e-05
0.000143569
0.000381116
0.00035464
0.00100068
0.000663069
0.00190859
0.00103095
0.00303327
0.00139892
0.00422557
0.00172021
0.005337
0.00197718
0.00629195
0.00217797
0.00709133
0.00779479
0.00234029
2.71622e-05
1.71402e-05
0.000127028
0.00028125
0.000321567
0.000806141
0.00061827
0.00161189
0.000991697
0.00265984
0.00138659
0.00383068
0.00174871
0.00497487
0.00204911
0.00599155
0.00228797
0.00685247
0.00760235
0.00248041
2.29338e-05
-5.79357e-06
0.000110792
0.000193391
0.00028724
0.000629694
0.000567059
0.00133207
0.000937797
0.00228911
0.00135273
0.00341575
0.0017537
0.0045739
0.00210028
0.00564497
0.00238241
0.00657034
0.00737429
0.00261048
1.90198e-05
-2.48133e-05
9.52173e-05
0.000117194
0.000252766
0.000472145
0.000511556
0.00107328
0.000871207
0.00192946
0.00129716
0.0029898
0.00173225
0.0041388
0.00212602
0.0052512
0.00245637
0.00623999
0.00710408
0.00272658
1.5462e-05
-4.02754e-05
8.05901e-05
5.20656e-05
0.000219129
0.000333606
0.000453984
0.000838422
0.000794783
0.00158866
0.00122111
0.00256347
0.00168246
0.00367746
0.00212172
0.00481193
0.00250411
1.22877e-05
-5.25631e-05
6.7128e-05
-2.77468e-06
0.000187143
0.000213591
0.000396457
0.000629107
0.000712002
0.00127311
0.00112745
0.00214803
0.001604
0.0032009
0.00433253
9.51013e-06
-6.20732e-05
5.49787e-05
-4.82432e-05
0.000157434
0.000111136
0.000340812
0.00044573
0.000626555
0.000987368
0.00102049
0.00175409
0.00149875
0.00272265
7.12968e-06
-6.92029e-05
4.42234e-05
-8.5337e-05
0.000130435
2.49238e-05
0.000288503
0.000287663
0.000541919
0.000733951
0.000905578
0.00139043
5.13438e-06
-7.43373e-05
3.48806e-05
-0.000115083
0.000106389
-4.65848e-05
0.000240555
0.000153497
0.000461003
0.000513503
3.50021e-06
-7.78375e-05
2.69094e-05
-0.000138492
8.53621e-05
-0.000105037
0.000197565
4.12941e-05
2.19194e-06
-8.00294e-05
2.02171e-05
-0.000156517
6.72637e-05
-0.000152084
-5.11749e-05
1.16554e-06
-8.1195e-05
1.4667e-05
-0.000170019
5.18735e-05
-0.000189291
3.74883e-07
-8.15698e-05
1.00927e-05
-0.000179737
-2.66533e-07
-8.13033e-05
-0.000186315
-7.62715e-07
-8.05406e-05
-7.93674e-05
0.00675225
0.00120015
-0.00670066
0.00680222
0.00136089
0.00685031
0.0015219
0.00689616
0.00168275
0.0069392
0.00184299
0.00697857
0.00200203
0.00701293
0.00215916
0.00704029
0.00231341
0.00705773
0.00246351
0.00706115
0.00260767
0.00274349
0.0069207
0.00114807
-0.00686862
0.00697217
0.00130942
0.00702291
0.00147116
0.00707272
0.00163294
0.0071213
0.0017944
0.00716821
0.00195512
0.00721274
0.00211463
0.00725383
0.00227232
0.00728992
0.00242742
0.0073187
0.00257889
0.0027253
0.00709728
0.00109768
-0.0070469
0.00714803
0.00125867
0.0071991
0.00142009
0.00725041
0.00158163
0.00730182
0.001743
0.00735309
0.00190385
0.00740387
0.00206385
0.00745364
0.00222255
0.00750163
0.00237943
0.00754667
0.00253385
0.00268489
0.00728606
0.00104947
-0.00723785
0.00733517
0.00120956
0.00738525
0.00137001
0.00743633
0.00153055
0.00748842
0.00169091
0.00754147
0.00185081
0.00759535
0.00200997
0.00764985
0.00216804
0.00770462
0.00232466
0.0077591
0.00247937
0.00263165
0.00748755
0.00100332
-0.00744139
0.00753494
0.00116217
0.00758368
0.00132127
0.00763385
0.00148038
0.0076855
0.00163925
0.0077387
0.00179761
0.00779344
0.00195523
0.00784967
0.00211181
0.00790722
0.00226711
0.00796582
0.00242077
0.00257254
0.00770004
0.000958891
-0.00765561
0.00774597
0.00111623
0.0077935
0.00127375
0.00784268
0.0014312
0.00789361
0.00158833
0.00794632
0.0017449
0.00800088
0.00190067
0.00805729
0.0020554
0.00811552
0.00220888
0.00817549
0.00236079
0.002511
0.00792259
0.000915998
-0.0078797
0.00796723
0.00107159
0.00801368
0.0012273
0.00806198
0.00138289
0.0081122
0.00153811
0.00816439
0.00169271
0.0082186
0.00184647
0.00827487
0.00199913
0.00833324
0.0021505
0.00839377
0.00230027
0.00244832
0.00815458
0.0008745
-0.00811308
0.00819804
0.00102813
0.00824351
0.00118183
0.00829104
0.00133536
0.00834067
0.00148847
0.00839244
0.00164094
0.0084464
0.00179251
0.00850258
0.00194295
0.00856103
0.00209205
0.00862178
0.00223953
0.00238525
0.00839593
0.000834368
-0.0083558
0.00843824
0.000985821
0.00848277
0.0011373
0.00852956
0.00128857
0.00857863
0.0014394
0.00863002
0.00158955
0.00868374
0.00173878
0.00873982
0.00188687
0.00879827
0.0020336
0.00885907
0.00217872
0.00232206
0.00864627
0.000795525
-0.00860743
0.00868749
0.000944601
0.00873112
0.00109367
0.00877719
0.00124251
0.00882572
0.00139087
0.00887672
0.00153854
0.00893021
0.0016853
0.00898619
0.0018309
0.00904466
0.00197513
0.00910562
0.00211776
0.00225858
0.00890556
0.000757922
-0.00886795
0.00894572
0.000904436
0.00898847
0.00105092
0.00903384
0.00119714
0.00908182
0.00134289
0.00913244
0.00148792
0.0091857
0.00163204
0.0092416
0.001775
0.00930014
0.00191659
0.00936131
0.00205659
0.00219478
0.00917379
0.000721503
-0.00913737