/*--------------------------------*- C++ -*----------------------------------*\
  =========                 |
  \\      /  F ield         | OpenFOAM: The Open Source CFD Toolbox
   \\    /   O peration     | Website:  https://openfoam.org
    \\  /    A nd           | Version:  7
     \\/     M anipulation  |
\*---------------------------------------------------------------------------*/
FoamFile
{
    version     2.0;
    format      ascii;
    class       volVectorField;
    location    "35";
    object      U;
}
// * * * * * * * * * * * * * * * * * * * * * * * * * * * * * * * * * * * * * //

dimensions      [0 1 -1 0 0 0 0];

internalField   nonuniform List<vector> 
6386
(
(-0.013119 0.0179928 6.49692e-20)
(-0.0141126 0.0178594 1.4647e-19)
(-0.015058 0.0175948 6.63411e-20)
(-0.015936 0.0172015 -3.18483e-19)
(-0.0338393 0.0376823 1.97988e-19)
(-0.0167177 0.0166786 1.057e-20)
(-0.0339452 0.0357142 -1.9847e-19)
(-0.0173604 0.0160186 -2.48783e-20)
(-0.0333115 0.0333608 2.33631e-19)
(-0.0310108 0.0414654 -2.38359e-20)
(-0.0178102 0.0152159 -1.50566e-19)
(-0.0317464 0.0306369 2.1304e-19)
(-0.0243511 0.0373115 -1.23189e-19)
(0.00558117 0.0384683 1.71509e-19)
(-0.018003 0.0142622 2.79413e-19)
(-0.0290279 0.02756 -3.0117e-19)
(-0.0152541 0.0328391 -6.89444e-20)
(0.0246129 0.0335264 -3.21052e-19)
(-0.0178571 0.0131463 -5.69575e-20)
(-0.0249073 0.0241591 9.62694e-21)
(-0.00329153 0.0281747 -1.6555e-19)
(0.048339 0.0287841 -5.38977e-20)
(0.13254 0.0299019 2.34243e-19)
(-0.0172755 0.0118606 3.1869e-19)
(-0.0191113 0.0204782 -1.71714e-19)
(0.0119769 0.0234733 1.7164e-19)
(0.0773097 0.0245471 6.00406e-20)
(0.17932 0.0279934 -8.8248e-20)
(0.318653 0.0373099 -4.21426e-20)
(-0.0161491 0.0104046 -1.69796e-19)
(-0.0113494 0.0165826 4.10751e-19)
(0.030984 0.0189237 -1.15484e-19)
(0.11199 0.0211612 2.88497e-20)
(0.233483 0.0279317 5.29793e-19)
(0.393603 0.0426998 -2.33056e-19)
(0.581879 0.0671486 -2.10599e-19)
(-0.0143584 0.00878786 7.67607e-20)
(-0.00132401 0.0125655 3.85663e-20)
(0.0541307 0.0147544 4.76974e-20)
(0.152707 0.0190092 -8.05979e-20)
(0.294849 0.0302014 -9.43178e-20)
(0.474697 0.0513467 -3.62636e-19)
(0.674837 0.0821015 4.85317e-20)
(0.867973 0.115351 6.06752e-20)
(-0.0117773 0.00703354 -6.26921e-20)
(0.0112569 0.0085545 -5.20628e-19)
(0.0817585 0.0112376 3.54254e-19)
(0.199595 0.0185052 1.61767e-19)
(0.362794 0.0352386 -2.51678e-19)
(0.559849 0.0633478 -3.84496e-20)
(0.765953 0.0997268 2.85271e-19)
(0.950716 0.135518 4.71431e-19)
(1.09248 0.16693 1.25872e-20)
(-0.00827692 0.00518103 -9.51497e-20)
(0.0266662 0.00471624 1.86657e-19)
(0.114119 0.00868983 -4.61173e-19)
(0.25254 0.0200785 -1.64385e-19)
(0.43621 0.0433758 1.71512e-19)
(0.646519 0.0785311 9.21367e-20)
(0.852151 0.119293 -3.26944e-19)
(1.02302 0.155771 -2.28941e-19)
(1.14379 0.184104 -2.84238e-19)
(1.21503 0.194869 1.64852e-19)
(-0.0037305 0.00328782 3.64495e-20)
(0.0451407 0.0012579 3.42138e-19)
(0.151339 0.00746647 1.69581e-19)
(0.311134 0.0241461 1.83811e-19)
(0.513529 0.0547844 -6.35632e-20)
(0.732026 0.0964881 3.03169e-19)
(0.931043 0.140045 -2.62796e-20)
(1.0842 0.175563 1.65742e-19)
(1.18379 0.200065 3.14232e-19)
(1.2376 0.207778 -1.41249e-19)
(0.0019817 0.00143026 -1.0675e-19)
(0.0668642 -0.00157398 -2.08523e-19)
(0.193392 0.00795054 -1.35609e-19)
(0.374639 0.0310734 1.31794e-19)
(0.592843 0.0694389 2.67063e-20)
(0.813885 0.116664 -2.60014e-19)
(1.00111 0.161327 5.898e-20)
(1.13444 0.194554 7.25591e-20)
(1.2139 0.214785 4.34755e-20)
(1.25256 0.219405 5.23239e-20)
(0.00896622 -0.000296489 7.15314e-20)
(0.0919484 -0.0034982 1.91302e-19)
(0.240062 0.0105339 1.85745e-19)
(0.442004 0.0411295 -2.2973e-19)
(0.672086 0.0871224 -1.63618e-19)
(0.890078 0.138463 9.67639e-20)
(1.06164 0.182636 1.57133e-19)
(1.17453 0.212578 -3.92237e-20)
(1.23568 0.228365 -1.59223e-19)
(1.26168 0.230047 -4.15227e-20)
(0.0173099 -0.00177965 4.63805e-20)
(0.120416 -0.00420729 -8.25421e-21)
(0.290932 0.0155921 -8.64472e-20)
(0.511906 0.054451 -1.34059e-20)
(0.749257 0.107474 -1.44997e-20)
(0.959178 0.161334 1.23703e-19)
(1.1126 0.203625 -1.95529e-19)
(1.20555 0.229605 -1.19807e-19)
(1.25065 0.240973 -3.40964e-21)
(1.26639 0.239979 7.70248e-20)
(0.0270736 -0.00289123 2.2224e-19)
(0.152183 -0.00337905 -4.1022e-20)
(0.345373 0.0234547 -6.92516e-20)
(0.58285 0.0710261 -1.14878e-20)
(0.822597 0.130057 -3.23505e-20)
(1.02035 0.184814 -1.36586e-19)
(1.15443 0.224086 8.33426e-20)
(1.22872 0.24569 -1.13473e-19)
(1.26015 0.252801 7.14934e-20)
(1.26777 0.24943 1.92e-19)
(0.0382857 -0.0034912 -9.60593e-20)
(0.18705 -0.000691021 -2.00849e-19)
(0.402561 0.0343759 -2.56737e-20)
(0.653288 0.0907043 2.36534e-19)
(0.890712 0.154416 7.293e-20)
(1.07327 0.208545 1.58021e-19)
(1.18783 0.243917 2.54071e-19)
(1.24524 0.260939 5.46905e-20)
(1.26531 0.264039 5.44675e-20)
(1.26665 0.258578 -1.41453e-19)
(0.0509362 -0.0034318 8.95823e-21)
(0.224694 0.00416262 1.37844e-19)
(0.461515 0.0485114 1.42738e-19)
(0.721743 0.113227 -1.52457e-19)
(0.95261 0.180125 1.88911e-19)
(1.11802 0.232259 -1.61759e-19)
(1.21368 0.263087 -3.48622e-20)
(1.2562 0.275481 -5.17292e-20)
(1.26703 0.274852 -5.24566e-20)
(1.26359 0.267554 -7.26766e-20)
(0.0649726 -0.00256266 -8.83717e-21)
(0.264674 0.0114531 -1.40524e-20)
(0.521151 0.0659058 -1.06793e-20)
(0.7869 0.138266 -8.6472e-21)
(1.00767 0.206802 3.93979e-20)
(1.15491 0.25577 4.25575e-20)
(1.23285 0.281616 -4.35191e-20)
(1.26255 0.289443 -2.97329e-20)
(1.26603 0.285378 -3.19947e-20)
(1.25901 0.276442 9.49488e-20)
(0.0802969 -0.000736715 -1.43868e-20)
(0.306436 0.0213993 3.80457e-20)
(0.580346 0.0864932 5.94906e-20)
(0.847673 0.165454 -1.82887e-20)
(1.05561 0.234117 -1.29792e-19)
(1.18446 0.278951 -9.85214e-20)
(1.24621 0.299546 -3.16696e-21)
(1.26508 0.302941 6.98493e-20)
(1.26281 0.295716 -1.04839e-20)
(1.25318 0.285285 -2.6064e-20)
(0.096765 0.00218333 -3.93699e-20)
(0.349337 0.0341527 2.12212e-20)
(0.638 0.110107 -2.25673e-20)
(0.903222 0.194413 4.8592e-21)
(1.09638 0.261789 1.55456e-20)
(1.20726 0.301715 2.16609e-20)
(1.25453 0.316929 -3.53773e-21)
(1.26443 0.316067 -4.12099e-20)
(1.25778 0.30593 2.4922e-21)
(1.24626 0.294097 1.19714e-20)
(0.114188 0.00631831 -1.31514e-20)
(0.392664 0.0497861 4.30456e-23)
(0.693093 0.1365 3.23049e-21)
(0.952951 0.224769 -3.12369e-21)
(1.13013 0.289579 2.10391e-20)
(1.2239 0.324004 6.95576e-21)
(1.2585 0.333812 3.82117e-21)
(1.26111 0.328888 -1.44516e-21)
(1.2512 0.316052 -5.69405e-21)
(1.23837 0.302862 -1.13758e-20)
(0.132337 0.0117661 -6.29513e-21)
(0.435672 0.0682879 -1.89404e-20)
(0.744721 0.165356 1.41199e-20)
(0.996478 0.256159 -1.47383e-21)
(1.15712 0.317276 1.27789e-20)
(1.235 0.345771 1.12138e-20)
(1.25868 0.350228 8.28585e-21)
(1.25551 0.341442 -6.30477e-21)
(1.24325 0.32608 -6.01548e-21)
(1.22957 0.311548 -8.70799e-21)
(0.150948 0.0185956 -2.25297e-20)
(0.477605 0.0895613 -2.21043e-20)
(0.792125 0.196317 -1.37742e-20)
(1.0336 0.288235 -1.28916e-20)
(1.1777 0.344698 2.65543e-20)
(1.24109 0.366973 3.56887e-20)
(1.25556 0.366194 -4.63042e-21)
(1.2479 0.353736 -2.98722e-20)
(1.23406 0.335988 -4.74947e-21)
(1.21991 0.320107 -3.32173e-21)
(0.169728 0.0268421 -2.5856e-20)
(0.517735 0.113429 1.20267e-20)
(0.834696 0.22899 3.33492e-20)
(1.06428 0.320662 1.21014e-20)
(1.19226 0.371674 -1.63054e-19)
(1.24268 0.387566 -1.93187e-20)
(1.24953 0.381703 -1.98311e-20)
(1.23851 0.365756 5.15782e-20)
(1.22371 0.345729 -1.79157e-20)
(1.20941 0.32848 -7.17887e-21)
(0.18837 0.0365036 2.51657e-20)
(0.555379 0.13964 -5.68383e-20)
(0.871976 0.262962 -1.02135e-19)
(1.08856 0.353121 2.95173e-20)
(1.20118 0.398046 7.78902e-20)
(1.24022 0.407493 1.49068e-20)
(1.24091 0.396731 1.02908e-20)
(1.2275 0.377458 -2.07426e-20)
(1.21226 0.355233 -2.23234e-20)
(1.1981 0.3366 4.68872e-20)
(0.206556 0.0475394 5.47121e-20)
(0.589926 0.167882 2.42737e-19)
(0.903643 0.297811 3.71972e-20)
(1.10661 0.385307 -1.43606e-19)
(1.20487 0.42366 7.40997e-20)
(1.2341 0.426691 -8.35491e-21)
(1.22994 0.41123 -1.02068e-19)
(1.21496 0.388779 9.09877e-21)
(1.19973 0.364411 -1.61881e-20)
(1.18597 0.344391 -3.55339e-20)
(0.22397 0.0598701 -2.29517e-19)
(0.620848 0.197789 -2.5693e-19)
(0.929507 0.33311 -4.105e-20)
(1.11862 0.416924 3.56595e-19)
(1.20371 0.448362 -1.50901e-20)
(1.22465 0.445084 1.89501e-19)
(1.21682 0.425138 1.1414e-19)
(1.20098 0.39964 8.20328e-20)
(1.18612 0.373166 1.5746e-20)
(1.17293 0.351778 -3.2796e-20)
(0.240306 0.0733787 2.1554e-19)
(0.647708 0.228955 -2.13296e-19)
(0.949485 0.368434 1.29659e-19)
(1.12487 0.44769 -1.32625e-19)
(1.19808 0.472 2.7876e-20)
(1.21217 0.462581 -1.35018e-19)
(1.20173 0.438379 6.40364e-21)
(1.18563 0.409966 -1.11667e-20)
(1.17142 0.381433 1.42176e-20)
(1.15876 0.358677 5.50537e-20)
(0.255277 0.0879142 1.69941e-20)
(0.670168 0.260948 6.69377e-20)
(0.963592 0.403366 -9.43772e-20)
(1.12564 0.477332 -3.64341e-20)
(1.18833 0.49442 -6.22637e-20)
(1.19693 0.479083 1.16149e-19)
(1.18481 0.45086 -1.30097e-19)
(1.16898 0.419684 -3.40413e-20)
(1.15564 0.389227 1.14191e-20)
(1.14338 0.364965 -1.68107e-20)
(0.268624 0.103296 2.98506e-20)
(0.687989 0.293316 1.14777e-19)
(0.971922 0.437497 4.08962e-19)
(1.12125 0.505588 -2.8679e-19)
(1.17478 0.515466 -1.18578e-19)
(1.17915 0.494476 -5.28103e-20)
(1.16619 0.462472 1.18514e-19)
(1.1511 0.428688 3.55641e-20)
(1.13887 0.396576 -3.54034e-20)
(1.1273 0.370585 -1.19594e-20)
(0.280121 0.119316 -8.68122e-20)
(0.701027 0.325603 -1.86295e-19)
(0.974635 0.470433 -3.01572e-19)
(1.11203 0.532207 2.263e-19)
(1.15774 0.534983 6.6889e-21)
(1.15904 0.508641 -1.15347e-19)
(1.14597 0.473099 3.25306e-20)
(1.13207 0.436845 5.09339e-22)
(1.12108 0.4032 2.21838e-20)
(1.11077 0.375633 -3.20135e-22)
(0.28958 0.135747 -4.71712e-20)
(0.709227 0.357358 3.11379e-19)
(0.971947 0.501798 3.3957e-19)
(1.0983 0.556949 7.24158e-20)
(1.13752 0.552816 -4.39944e-20)
(1.1368 0.521453 2.11329e-19)
(1.12431 0.482624 -6.7653e-20)
(1.11192 0.444089 1.64566e-20)
(1.1023 0.408964 1.67107e-20)
(1.09362 0.379908 -5.83598e-21)
(0.296855 0.152347 -1.85232e-19)
(0.712609 0.388141 8.90311e-20)
(0.964124 0.531236 -2.71428e-19)
(1.08043 0.579586 -1.10421e-19)
(1.11441 0.568812 5.17194e-20)
(1.11264 0.532777 -1.39936e-20)
(1.10131 0.490926 -7.08033e-20)
(1.09072 0.450307 -9.08498e-21)
(1.08266 0.413783 5.27459e-21)
(1.0758 0.383309 3.39895e-20)
(0.301842 0.168868 -1.29535e-19)
(0.711269 0.417528 -3.44006e-19)
(0.951489 0.558418 2.4118e-19)
(1.05875 0.599902 5.59585e-21)
(1.08867 0.582813 3.77636e-20)
(1.08674 0.542484 -9.38688e-20)
(1.07708 0.497885 4.0647e-20)
(1.06854 0.45539 -1.13516e-20)
(1.06224 0.417564 -8.34294e-21)
(1.05737 0.385751 5.62692e-20)
(0.304479 0.185056 1.42727e-19)
(0.705383 0.445118 3.1064e-20)
(0.934422 0.583061 -2.05286e-19)
(1.03359 0.617688 4.32609e-20)
(1.06056 0.594665 -3.24831e-20)
(1.05928 0.550437 -3.57768e-20)
(1.05174 0.503385 -2.82324e-20)
(1.04549 0.45923 6.31133e-20)
(1.04111 0.420212 1.3152e-20)
(1.03841 0.387157 -1.57811e-19)
(0.304757 0.200661 -1.15492e-19)
(0.695207 0.470522 3.96422e-19)
(0.913277 0.604912 -1.98681e-19)
(1.00521 0.632748 1.37858e-19)
(1.03038 0.604216 7.05041e-20)
(1.03044 0.556506 1.31447e-20)
(1.02541 0.507314 4.70859e-21)
(1.02167 0.461729 3.27126e-20)
(1.01935 0.421625 -1.19013e-19)
(1.01901 0.387435 4.57494e-20)
(0.302728 0.215446 7.56916e-20)
(0.681071 0.49342 -1.17328e-19)
(0.888184 0.623616 1.89417e-19)
(0.974045 0.644979 -6.65204e-20)
(0.998431 0.611314 -4.52894e-20)
(1.00042 0.560577 -5.54535e-20)
(0.998245 0.509568 4.53269e-20)
(0.99718 0.462799 -1.20439e-20)
(0.997061 0.42171 8.38985e-21)
(0.99924 0.386495 2.16729e-20)
(0.29849 0.229169 -8.14824e-20)
(0.663277 0.513688 -3.8254e-20)
(0.859375 0.638841 -4.8671e-20)
(0.940563 0.654138 -2.63527e-20)
(0.964965 0.615884 3.98854e-20)
(0.969416 0.562548 1.43903e-19)
(0.970382 0.510052 -7.09431e-20)
(0.972138 0.462361 -1.36246e-19)
(0.974368 0.4204 3.41714e-19)
(0.979378 0.384291 1.47299e-19)
(0.292132 0.241484 9.42013e-20)
(0.641918 0.530981 -1.1635e-19)
(0.82765 0.650748 -2.18767e-20)
(0.905151 0.660024 1.06685e-20)
(0.930254 0.61781 -7.70157e-20)
(0.937608 0.562322 -1.99126e-19)
(0.941949 0.508667 1.74302e-20)
(0.946641 0.460311 -1.74572e-20)
(0.95154 0.417618 -1.16412e-19)
(0.960114 0.380858 -2.72404e-19)
(0.283665 0.252169 -8.3006e-21)
(0.617224 0.544748 2.949e-20)
(0.793525 0.659082 -2.07485e-21)
(0.868091 0.662655 -9.09844e-21)
(0.894549 0.617016 1.33758e-19)
(0.905178 0.559818 1.23364e-19)
(0.913048 0.505319 2.95703e-19)
(0.920792 0.456489 7.02186e-20)
(0.928959 0.41312 -1.68636e-19)
(0.942117 0.376178 6.1196e-21)
(0.273317 0.261071 7.74923e-21)
(0.589811 0.55489 -1.62704e-20)
(0.75729 0.66363 -2.47318e-20)
(0.829718 0.661952 3.85034e-20)
(0.858111 0.613436 5.74266e-20)
(0.872306 0.554983 -1.55741e-20)
(0.88379 0.499957 -4.4847e-19)
(0.894742 0.450772 4.65033e-20)
(0.906876 0.406454 1.33853e-20)
(0.924547 0.36937 8.04544e-20)
(0.261309 0.268108 1.22035e-21)
(0.560094 0.561285 1.49277e-20)
(0.719357 0.664255 -1.39254e-19)
(0.790382 0.657854 5.35843e-20)
(0.821205 0.607029 -7.88912e-21)
(0.839181 0.547788 -3.23178e-19)
(0.854349 0.49259 3.18077e-19)
(0.868718 0.443304 -2.67588e-19)
(0.885158 0.397838 2.88715e-19)
(0.904589 0.356597 -1.55376e-19)
(0.247813 0.273119 9.17651e-20)
(0.528505 0.563825 9.74565e-20)
(0.68015 0.660891 2.29313e-19)
(0.75043 0.650319 1.70307e-19)
(0.784093 0.597768 3.42346e-20)
(0.806018 0.538204 8.95673e-21)
(0.824974 0.483195 -1.84715e-19)
(0.84294 0.434228 4.41334e-20)
(0.862787 0.389337 -2.82729e-19)
(0.881564 0.349686 3.65629e-19)
(0.23305 0.275978 -3.56576e-20)
(0.495473 0.562429 -7.77435e-20)
(0.640092 0.653511 -3.41712e-19)
(0.710209 0.639332 -1.7717e-19)
(0.74704 0.585641 -1.44847e-20)
(0.773038 0.526207 5.81408e-19)
(0.795877 0.471709 4.63617e-19)
(0.817496 0.423236 3.17684e-19)
(0.840398 0.378735 6.49109e-19)
(0.860055 0.339314 3.32838e-19)
(0.217265 0.276598 -2.07696e-20)
(0.461422 0.557051 2.59663e-19)
(0.599603 0.642122 9.54672e-20)
(0.670058 0.624907 -8.43802e-20)
(0.71031 0.570657 9.51647e-20)
(0.740455 0.511806 -8.16196e-19)
(0.767198 0.458174 -4.32646e-19)
(0.792375 0.410546 -2.19995e-19)
(0.818064 0.366982 -3.93596e-19)
(0.839271 0.328663 -1.32883e-19)
(0.200707 0.274919 -4.23199e-20)
(0.426774 0.547682 -4.85293e-19)
(0.559091 0.626762 4.48025e-20)
(0.630311 0.607082 2.15599e-19)
(0.674165 0.552843 -8.10937e-20)
(0.708485 0.495016 1.23433e-19)
(0.739112 0.442588 3.77243e-19)
(0.767751 0.396085 -1.59465e-19)
(0.796139 0.3537 -4.74984e-19)
(0.819308 0.316649 -2.18343e-20)
(0.183632 0.270911 1.07615e-19)
(0.391948 0.534353 1.40428e-19)
(0.518954 0.607497 2.30783e-19)
(0.591292 0.58592 -1.17455e-19)
(0.638861 0.532248 -4.72749e-19)
(0.677335 0.475876 -5.1221e-19)
(0.711781 0.424993 -1.88098e-19)
(0.743779 0.37992 5.65802e-19)
(0.774818 0.339013 4.6072e-19)
(0.80016 0.303406 5.12926e-19)
(0.166294 0.264571 -3.90461e-19)
(0.357351 0.51713 4.73059e-19)
(0.479578 0.584422 -3.41426e-19)
(0.553314 0.561509 -3.03566e-19)
(0.604647 0.508942 6.80271e-19)
(0.647208 0.45444 6.07333e-19)
(0.685375 0.405431 7.23193e-19)
(0.720618 0.362078 -2.52241e-19)
(0.754247 0.322896 -2.55739e-19)
(0.781859 0.28887 -7.38887e-19)
(0.148946 0.255925 2.88244e-19)
(0.323382 0.496115 -1.06724e-19)
(0.441333 0.557663 4.1468e-19)
(0.516679 0.533958 -3.71685e-19)
(0.571765 0.483013 -5.19036e-20)
(0.618302 0.43078 -1.03221e-18)
(0.660059 0.383964 -4.68599e-19)
(0.69842 0.34261 2.56033e-19)
(0.734555 0.305383 9.94515e-20)
(0.764466 0.273072 -6.96675e-21)
(0.131838 0.245024 1.45403e-19)
(0.290421 0.471443 -3.88439e-19)
(0.404571 0.52737 -5.18248e-19)
(0.481674 0.5034 3.58877e-20)
(0.540444 0.454568 5.01913e-19)
(0.590807 0.404985 -3.3225e-20)
(0.635997 0.360668 -1.68049e-19)
(0.677325 0.321576 -2.93639e-19)
(0.715859 0.286513 -5.49664e-19)
(0.748049 0.256056 1.53879e-20)
(0.115208 0.231946 5.71321e-20)
(0.258831 0.443282 -5.34317e-20)
(0.369628 0.493722 8.43744e-19)
(0.448571 0.46999 3.30638e-19)
(0.510905 0.423735 -1.11688e-19)
(0.564906 0.37716 7.45524e-19)
(0.613343 0.335632 -3.76236e-19)
(0.657469 0.29905 4.59739e-19)
(0.69827 0.266343 1.81997e-19)
(0.73268 0.237883 -2.96916e-19)
(0.0992856 0.216792 1.87423e-19)
(0.228954 0.411828 2.71016e-19)
(0.336815 0.456922 -9.65248e-19)
(0.417625 0.433901 -1.42373e-19)
(0.483355 0.390657 -6.26145e-19)
(0.540772 0.347427 8.06131e-20)
(0.592244 0.30896 1.04168e-19)
(0.638977 0.275117 1.55062e-19)
(0.681892 0.244944 5.54601e-19)
(0.71843 0.218627 1.15658e-19)
(0.0842881 0.199687 -2.54359e-19)
(0.201109 0.377307 3.55143e-19)
(0.306423 0.417195 2.3735e-20)
(0.389074 0.395328 9.01816e-20)
(0.457988 0.355494 6.19472e-19)
(0.51857 0.315921 1.03471e-20)
(0.572841 0.280768 1.53581e-19)
(0.621967 0.249876 -7.58057e-20)
(0.666826 0.222401 -3.47772e-19)
(0.70537 0.198371 -1.02167e-19)
(0.0704162 0.180775 5.09991e-19)
(0.17559 0.339968 -3.90487e-19)
(0.27872 0.374788 4.87265e-19)
(0.363136 0.354479 -2.9594e-20)
(0.434983 0.318424 -1.33348e-20)
(0.49845 0.282791 -5.83019e-19)
(0.555262 0.251184 1.11768e-19)
(0.606552 0.223436 3.28216e-20)
(0.653166 0.198808 -1.35171e-19)
(0.693564 0.177206 5.90664e-19)
(0.0578539 0.16022 -5.64356e-19)
(0.15266 0.300083 3.06865e-19)
(0.253944 0.329967 -3.02995e-19)
(0.340008 0.311584 -1.77132e-19)
(0.414504 0.279634 -5.30218e-20)
(0.480551 0.248198 1.34551e-19)
(0.539627 0.220347 1.88701e-19)
(0.592836 0.195917 1.91096e-19)
(0.641003 0.17427 -3.28831e-19)
(0.683075 0.155228 -2.22997e-19)
(0.0467663 0.138204 1.52349e-19)
(0.132558 0.257948 -7.38006e-20)
(0.23231 0.283016 -4.80346e-20)
(0.319865 0.266881 5.58603e-19)
(0.396694 0.239327 -1.02338e-19)
(0.464999 0.212316 -1.10579e-19)
(0.526048 0.188407 2.08685e-19)
(0.580917 0.167448 -1.01318e-19)
(0.630422 0.148902 7.48077e-20)
(0.673962 0.132541 1.48813e-19)
(0.037298 0.114921 1.34915e-19)
(0.115488 0.213872 -4.41889e-20)
(0.214003 0.234231 9.86494e-20)
(0.30286 0.220625 -3.07484e-19)
(0.381681 0.197716 6.88657e-20)
(0.451902 0.175325 4.46669e-19)
(0.514622 0.155519 -2.68583e-19)
(0.570887 0.138167 -4.44113e-19)
(0.621507 0.122824 -1.35249e-19)
(0.666284 0.109253 5.23922e-21)
(0.0295714 0.090582 4.31214e-20)
(0.101622 0.168184 -1.34572e-19)
(0.199177 0.183925 2.66307e-19)
(0.289118 0.17308 -9.55577e-20)
(0.369571 0.155021 1.55985e-19)
(0.441355 0.137412 -3.69375e-19)
(0.505434 0.121847 1.84796e-19)
(0.56283 0.108215 1.57577e-19)
(0.61434 0.0961671 2.42151e-19)
(0.660104 0.0854822 -2.13003e-19)
(0.0236863 0.0654065 -1.53067e-19)
(0.0911017 0.121224 7.24779e-20)
(0.187958 0.132421 -1.20515e-19)
(0.278742 0.124518 -1.61195e-19)
(0.360447 0.111469 -3.44314e-19)
(0.43343 0.0987715 2.47013e-19)
(0.498554 0.0875549 -6.09594e-20)
(0.556818 0.0777369 1.8562e-19)
(0.609005 0.0690657 -1.64455e-19)
(0.655505 0.0613597 1.39986e-19)
(0.0197184 0.0396238 5.0994e-20)
(0.084031 0.0733431 -1.6582e-20)
(0.180437 0.0800493 -1.90268e-20)
(0.271806 0.0752187 1.35688e-19)
(0.354368 0.0672955 7.00452e-20)
(0.428175 0.0595986 -6.98506e-20)
(0.494027 0.0528074 -1.0077e-20)
(0.552905 0.0468716 -1.94581e-19)
(0.605582 0.0416377 1.41844e-19)
(0.6526 0.0369765 4.31591e-20)
(0.0177188 0.0134698 -1.1906e-20)
(0.0804806 0.0249002 -2.6383e-20)
(0.176677 0.0271483 -1.48612e-20)
(0.268357 0.0254687 9.69415e-21)
(0.35137 0.0227384 5.44147e-20)
(0.425616 0.0200938 9.83352e-21)
(0.491867 0.0177698 3.4149e-20)
(0.551104 0.0157497 6.17662e-20)
(0.604098 0.013978 -5.64949e-21)
(0.651468 0.0123857 -6.15767e-20)
(0.0177134 -0.012815 -2.2219e-20)
(0.0804855 -0.0237399 -3.17612e-20)
(0.176707 -0.0259386 5.2554e-21)
(0.268416 -0.0244413 -7.02946e-21)
(0.351462 -0.0219577 6.39475e-20)
(0.425749 -0.0195359 -2.18183e-21)
(0.49205 -0.0173842 3.5905e-20)
(0.551354 -0.0154847 5.80417e-20)
(0.604452 -0.0137849 8.95069e-21)
(0.652001 -0.0122229 -7.13293e-20)
(0.0197027 -0.0389884 8.75091e-20)
(0.0840454 -0.0722103 1.75536e-20)
(0.180524 -0.0788661 -5.04187e-20)
(0.271977 -0.0742176 1.81117e-19)
(0.354635 -0.066544 2.07409e-20)
(0.428554 -0.0590759 -3.06447e-20)
(0.494536 -0.0524677 -1.10607e-20)
(0.553572 -0.0466713 -1.77872e-19)
(0.606442 -0.0415439 1.19492e-19)
(0.653701 -0.036973 -1.78557e-20)
(0.0236618 -0.0648085 -1.66365e-19)
(0.0911245 -0.120144 2.12954e-20)
(0.188094 -0.131289 -8.40458e-20)
(0.279011 -0.123566 -1.85617e-19)
(0.360862 -0.11077 -3.59976e-19)
(0.434006 -0.0983084 2.48986e-19)
(0.499303 -0.0872842 -1.01975e-21)
(0.557747 -0.077618 1.70404e-19)
(0.610114 -0.0690675 -2.05304e-19)
(0.656774 -0.0614562 1.81745e-19)
(0.0295406 -0.0900366 -1.66226e-20)
(0.101652 -0.16718 1.16113e-20)
(0.199355 -0.182865 -9.17027e-20)
(0.289465 -0.172196 1.31506e-19)
(0.370099 -0.15439 9.72638e-20)
(0.442069 -0.13702 -4.30256e-19)
(0.506327 -0.121648 1.26833e-19)
(0.563879 -0.108164 3.38133e-19)
(0.615504 -0.0962272 1.04822e-19)
(0.66132 -0.0856141 -1.33881e-19)
(0.037264 -0.11444 -2.88583e-20)
(0.115524 -0.212961 -1.18544e-19)
(0.214212 -0.233258 2.506e-19)
(0.303262 -0.219822 -2.85378e-19)
(0.382284 -0.197161 -1.79152e-19)
(0.452696 -0.175003 6.51707e-19)
(0.515576 -0.155382 -5.22248e-19)
(0.571951 -0.138163 -2.98428e-19)
(0.622611 -0.122907 -9.76611e-20)
(0.667353 -0.109379 2.85282e-20)
(0.0467329 -0.137795 2.08419e-19)
(0.1326 -0.257142 9.68153e-20)
(0.23254 -0.282142 -8.12527e-20)
(0.320302 -0.266165 6.18034e-19)
(0.397337 -0.238849 -2.84e-19)
(0.465822 -0.21206 6.3383e-20)
(0.526999 -0.188318 2.88266e-21)
(0.581926 -0.16747 -5.05558e-20)
(0.631408 -0.148984 1.17997e-19)
(0.674858 -0.132641 6.32723e-20)
(0.0578246 -0.159888 -4.3546e-19)
(0.152709 -0.299391 4.91308e-20)
(0.254185 -0.3292 -2.84647e-19)
(0.34046 -0.310957 -1.04428e-19)
(0.415157 -0.27923 9.02584e-20)
(0.481364 -0.247999 5.01272e-20)
(0.540532 -0.220293 4.56978e-20)
(0.59375 -0.195948 1.12887e-19)
(0.641849 -0.174338 -5.24539e-20)
(0.683803 -0.155295 -3.97878e-19)
(0.0703947 -0.180519 4.4881e-19)
(0.175644 -0.339391 -2.70047e-19)
(0.278965 -0.374129 5.02185e-19)
(0.363588 -0.353942 -6.46463e-20)
(0.435624 -0.318089 -1.23185e-19)
(0.499226 -0.282638 -4.84698e-19)
(0.556093 -0.251151 2.1138e-19)
(0.607354 -0.223464 -3.35182e-19)
(0.653872 -0.198853 2.2165e-19)
(0.694144 -0.177238 2.73272e-19)
(0.0842776 -0.199504 -3.40375e-19)
(0.201172 -0.376845 1.68582e-19)
(0.306667 -0.416644 3.66542e-19)
(0.389513 -0.394876 -4.21929e-20)
(0.458599 -0.355223 6.47408e-19)
(0.51929 -0.315806 4.51969e-20)
(0.573584 -0.280749 -3.56302e-20)
(0.622653 -0.249895 1.73108e-19)
(0.667401 -0.222422 -3.60588e-19)
(0.705825 -0.198373 -1.43503e-19)
(0.0992887 -0.216677 2.52161e-19)
(0.229026 -0.411477 3.58305e-19)
(0.337054 -0.456475 -9.38868e-19)
(0.418044 -0.433532 -3.42848e-19)
(0.483926 -0.390442 -1.16944e-19)
(0.541426 -0.347343 -2.21957e-19)
(0.592895 -0.308948 2.32628e-19)
(0.639552 -0.275125 -3.18859e-20)
(0.682352 -0.244943 5.7706e-19)
(0.718784 -0.218604 -4.95317e-20)
(0.115226 -0.231892 -6.58637e-20)
(0.258915 -0.443033 -1.89711e-19)
(0.369861 -0.493373 1.13657e-18)
(0.448964 -0.469696 1.59069e-19)
(0.511429 -0.42357 -1.47002e-19)
(0.565489 -0.377101 7.04465e-19)
(0.613902 -0.335623 2.81322e-21)
(0.657941 -0.299045 1.45003e-20)
(0.698631 -0.266324 1.91125e-19)
(0.732952 -0.23784 -2.86047e-20)
(0.131873 -0.245023 4.46299e-20)
(0.290518 -0.471288 -2.70303e-19)
(0.404799 -0.527112 -7.08721e-19)
(0.48204 -0.503177 3.19912e-19)
(0.540918 -0.454447 -1.99865e-20)
(0.591319 -0.404946 2.19741e-19)
(0.63647 -0.36066 4.94928e-20)
(0.677706 -0.321561 -5.65658e-19)
(0.716136 -0.28648 -4.50829e-19)
(0.748258 -0.256001 5.41123e-20)
(0.148999 -0.255969 -7.91859e-20)
(0.323493 -0.496043 -7.93827e-20)
(0.441554 -0.557488 5.39755e-19)
(0.517017 -0.533797 -2.38213e-19)
(0.57219 -0.48293 -2.37716e-19)
(0.618747 -0.430758 -8.34326e-19)
(0.660453 -0.383956 -4.34882e-19)
(0.698719 -0.342588 2.22467e-19)
(0.734762 -0.305342 5.60413e-20)
(0.764626 -0.273012 2.53782e-19)
(0.166363 -0.264651 -3.22207e-19)
(0.357479 -0.51713 4.60898e-19)
(0.479795 -0.584322 -7.46894e-19)
(0.553625 -0.561405 2.68321e-19)
(0.605026 -0.508893 2.59804e-19)
(0.64759 -0.454432 8.50933e-19)
(0.685697 -0.405424 5.48815e-19)
(0.720848 -0.362051 -2.85136e-19)
(0.754395 -0.322852 -4.20777e-19)
(0.781982 -0.288811 -4.41486e-19)
(0.183716 -0.271018 2.30455e-19)
(0.392091 -0.534415 4.99397e-20)
(0.519169 -0.607462 6.61717e-22)
(0.591579 -0.585867 -2.49735e-20)
(0.639196 -0.532229 -6.50154e-19)
(0.67766 -0.47588 -4.83909e-20)
(0.712041 -0.424987 -5.1308e-19)
(0.743949 -0.379891 4.46799e-19)
(0.774918 -0.338971 8.37161e-19)
(0.800257 -0.303356 4.18189e-19)
(0.200806 -0.275047 -2.77563e-19)
(0.426934 -0.547794 -4.43288e-19)
(0.559305 -0.626784 -3.00322e-21)
(0.630577 -0.607072 3.14117e-19)
(0.674461 -0.552849 -1.7937e-19)
(0.708758 -0.495031 3.43545e-19)
(0.739316 -0.442585 6.50331e-20)
(0.76787 -0.396057 -1.97307e-19)
(0.796197 -0.353663 -2.44997e-19)
(0.819387 -0.316617 -1.85168e-19)
(0.217376 -0.276739 -9.80808e-20)
(0.461598 -0.557202 2.22131e-19)
(0.599818 -0.642192 1.95376e-19)
(0.670306 -0.624935 9.73227e-21)
(0.710571 -0.570685 -1.26828e-19)
(0.740683 -0.51183 -6.14566e-19)
(0.767355 -0.458173 -5.18269e-19)
(0.792451 -0.410519 -6.90637e-20)
(0.818084 -0.366953 -6.08068e-19)
(0.839335 -0.328656 -2.78181e-19)
(0.233172 -0.276126 8.2228e-21)
(0.495664 -0.562611 -2.78488e-19)
(0.64031 -0.653619 -8.37635e-20)
(0.710443 -0.639392 -3.81396e-19)
(0.747271 -0.585689 2.04931e-19)
(0.773227 -0.52624 5.49342e-19)
(0.795993 -0.471711 2.87735e-19)
(0.817536 -0.423213 3.2549e-19)
(0.840381 -0.378719 7.24819e-19)
(0.860092 -0.339353 1.06173e-19)
(0.247943 -0.273269 1.46356e-19)
(0.52871 -0.564028 4.90269e-20)
(0.680371 -0.661031 1.57284e-19)
(0.750653 -0.650406 1.40243e-19)
(0.784299 -0.597832 9.82733e-20)
(0.806174 -0.538244 -1.31728e-20)
(0.825057 -0.483199 -8.58748e-20)
(0.842955 -0.434203 -1.45718e-19)
(0.862749 -0.389319 -2.25514e-19)
(0.881588 -0.349744 3.77136e-19)
(0.261446 -0.268257 5.61275e-22)
(0.560311 -0.561502 1.63344e-20)
(0.719584 -0.66442 -5.0189e-20)
(0.790596 -0.657963 -1.2575e-19)
(0.821391 -0.607106 1.37409e-19)
(0.83931 -0.547833 -3.07176e-19)
(0.854402 -0.492597 9.69094e-20)
(0.868712 -0.443285 5.28009e-20)
(0.885093 -0.397853 -3.16351e-21)
(0.904465 -0.356855 -1.46215e-19)
(0.273458 -0.261214 2.37608e-21)
(0.590039 -0.555114 -1.70682e-20)
(0.757523 -0.663812 2.34425e-20)
(0.829927 -0.662078 2.15429e-20)
(0.858282 -0.613522 -4.52659e-20)
(0.872413 -0.555032 1.05523e-19)
(0.88382 -0.499964 -3.94088e-19)
(0.894721 -0.450745 1.12248e-19)
(0.906822 -0.406437 -2.45041e-19)
(0.92441 -0.369449 9.70088e-20)
(0.283808 -0.252305 -4.53587e-20)
(0.617462 -0.544974 5.88282e-20)
(0.793764 -0.659277 -1.2884e-20)
(0.868297 -0.662794 -3.54401e-20)
(0.894708 -0.61711 1.52843e-19)
(0.905269 -0.559869 2.09096e-19)
(0.913062 -0.505325 2.68204e-19)
(0.920764 -0.456455 -5.62621e-20)
(0.928932 -0.413081 -1.31623e-19)
(0.942054 -0.376207 1.60328e-20)
(0.292276 -0.241611 1.36449e-19)
(0.642164 -0.531204 -1.16257e-19)
(0.827896 -0.65095 -2.89751e-20)
(0.905358 -0.660173 1.82324e-20)
(0.930406 -0.61791 -1.05205e-19)
(0.937688 -0.562375 -1.50667e-19)
(0.941955 -0.508673 -5.8434e-20)
(0.946613 -0.460277 -2.03888e-20)
(0.951535 -0.41758 7.89747e-20)
(0.960112 -0.380885 -5.33133e-19)
(0.298632 -0.229286 -1.86079e-20)
(0.663527 -0.513904 -2.37091e-20)
(0.859627 -0.639046 -9.2172e-20)
(0.940771 -0.654293 -2.29096e-20)
(0.965113 -0.615988 3.36185e-20)
(0.969491 -0.562603 1.27984e-19)
(0.970386 -0.51006 -7.61574e-20)
(0.972114 -0.462332 -4.9687e-20)
(0.974375 -0.420372 3.88792e-19)
(0.979397 -0.384317 8.48028e-20)
(0.302868 -0.215553 2.66731e-19)
(0.681325 -0.493627 -1.56275e-19)
(0.888441 -0.623821 8.41182e-20)
(0.974256 -0.645137 6.86768e-21)
(0.998577 -0.611422 -4.0491e-20)
(1.0005 -0.560635 -3.82825e-20)
(0.998249 -0.50958 3.91772e-20)
(0.997159 -0.462778 -7.30402e-20)
(0.997072 -0.421689 -3.43944e-20)
(0.999256 -0.386516 6.03815e-20)
(0.304894 -0.200756 -1.33364e-19)
(0.695463 -0.470717 3.32756e-19)
(0.91354 -0.605114 -8.68537e-20)
(1.00542 -0.632908 5.27945e-21)
(1.03053 -0.604325 1.23732e-19)
(1.03051 -0.556565 2.55844e-20)
(1.02542 -0.507329 1.63892e-20)
(1.02165 -0.461714 -1.87655e-20)
(1.01936 -0.42161 -3.57741e-20)
(1.01902 -0.387453 2.42588e-20)
(0.304612 -0.185141 9.36123e-20)
(0.70564 -0.445301 5.90531e-20)
(0.93469 -0.583257 9.53243e-21)
(1.03381 -0.617847 -5.53833e-20)
(1.06071 -0.594775 -2.3715e-20)
(1.05935 -0.550498 -6.12208e-20)
(1.05175 -0.503404 -1.50665e-20)
(1.04548 -0.459222 4.80226e-20)
(1.04112 -0.420203 -2.06532e-20)
(1.03841 -0.387172 -1.02727e-19)
(0.301969 -0.168943 -5.93005e-20)
(0.711524 -0.417697 -5.42177e-19)
(0.951761 -0.558606 3.06051e-19)
(1.05898 -0.600058 1.04656e-19)
(1.08882 -0.582922 -1.15393e-19)
(1.08681 -0.542547 -3.28292e-20)
(1.07709 -0.497907 3.40904e-20)
(1.06853 -0.455387 -1.31944e-20)
(1.06224 -0.41756 1.90391e-21)
(1.05735 -0.385765 4.72542e-20)
(0.296977 -0.152412 -1.09152e-19)
(0.71286 -0.388294 1.91264e-19)
(0.964399 -0.531414 -4.54549e-19)
(1.08066 -0.579738 -1.16192e-19)
(1.11456 -0.568921 1.05946e-19)
(1.11272 -0.53284 5.14118e-21)
(1.10133 -0.490951 -6.90316e-20)
(1.09071 -0.450309 -1.65744e-20)
(1.08266 -0.413783 3.47705e-21)
(1.07577 -0.383322 3.73082e-20)
(0.289697 -0.135803 4.28278e-20)
(0.709474 -0.357497 3.96409e-19)
(0.972223 -0.501965 1.64454e-19)
(1.09853 -0.557095 1.57142e-19)
(1.13769 -0.552922 -3.91815e-20)
(1.13688 -0.521516 1.37607e-19)
(1.12433 -0.482651 -1.96236e-20)
(1.11192 -0.444095 2.51299e-20)
(1.10229 -0.408966 5.40429e-21)
(1.09357 -0.379919 8.89019e-21)
(0.280232 -0.119363 -1.35297e-19)
(0.701269 -0.325727 -2.49191e-19)
(0.974911 -0.470588 -1.60073e-19)
(1.11226 -0.532347 1.1696e-19)
(1.15791 -0.535087 1.60604e-20)
(1.15913 -0.508704 -1.45312e-19)
(1.14599 -0.473127 1.04994e-20)
(1.13206 -0.436853 2.6449e-20)
(1.12107 -0.403204 1.69704e-20)
(1.11072 -0.375642 -2.93756e-21)
(0.268729 -0.103336 8.94028e-20)
(0.688224 -0.293425 2.31945e-19)
(0.972198 -0.437639 2.04638e-19)
(1.1215 -0.50572 -2.14052e-19)
(1.17495 -0.515566 -1.28262e-19)
(1.17924 -0.494538 4.78051e-20)
(1.16622 -0.462501 6.5388e-20)
(1.1511 -0.428697 -6.28509e-21)
(1.13885 -0.396581 -2.77323e-20)
(1.12724 -0.370592 -6.56325e-21)
(0.255375 -0.0879473 5.87162e-20)
(0.670395 -0.261043 -9.53588e-21)
(0.963866 -0.403495 -9.59803e-20)
(1.12589 -0.477455 -1.24651e-20)