/*--------------------------------*- C++ -*----------------------------------*\
  =========                 |
  \\      /  F ield         | OpenFOAM: The Open Source CFD Toolbox
   \\    /   O peration     | Website:  https://openfoam.org
    \\  /    A nd           | Version:  7
     \\/     M anipulation  |
\*---------------------------------------------------------------------------*/
FoamFile
{
    version     2.0;
    format      ascii;
    class       volScalarField;
    location    "10";
    object      p;
}
// * * * * * * * * * * * * * * * * * * * * * * * * * * * * * * * * * * * * * //

dimensions      [0 2 -2 0 0 0 0];

internalField   nonuniform List<scalar> 
6386
(
-0.292616
-0.29539
-0.29674
-0.297995
-0.299348
-0.300916
-0.30282
-0.305166
-0.308056
-0.311687
-0.292939
-0.29565
-0.296975
-0.29821
-0.299545
-0.301095
-0.302978
-0.305301
-0.308155
-0.311716
-0.293574
-0.296162
-0.297436
-0.298631
-0.299929
-0.301442
-0.303281
-0.305556
-0.308339
-0.311756
-0.294495
-0.296907
-0.298106
-0.29924
-0.300479
-0.301932
-0.303702
-0.305899
-0.308577
-0.311768
-0.295666
-0.297857
-0.298958
-0.300008
-0.301166
-0.302533
-0.304203
-0.306288
-0.30883
-0.311698
-0.297044
-0.298982
-0.299963
-0.300906
-0.301956
-0.303207
-0.304742
-0.306673
-0.309054
-0.311484
-0.298584
-0.300248
-0.30109
-0.301901
-0.302813
-0.303916
-0.305276
-0.307004
-0.309211
-0.311052
-0.30024
-0.301622
-0.302309
-0.302963
-0.303706
-0.304623
-0.305766
-0.307236
-0.309272
-0.310302
-0.301973
-0.303076
-0.303592
-0.304065
-0.304607
-0.305301
-0.306185
-0.307335
-0.309222
-0.309172
-0.303748
-0.304586
-0.30492
-0.305188
-0.305496
-0.305931
-0.306519
-0.307278
-0.308977
-0.308051
-0.305544
-0.306138
-0.306279
-0.306319
-0.306364
-0.306506
-0.30677
-0.307125
-0.308429
-0.306699
-0.30735
-0.307724
-0.307664
-0.307456
-0.307211
-0.307031
-0.306933
-0.30689
-0.307801
-0.304978
-0.309168
-0.309349
-0.309078
-0.308603
-0.308045
-0.307525
-0.307053
-0.306587
-0.307176
-0.302943
-0.311014
-0.311024
-0.310532
-0.309772
-0.308885
-0.308012
-0.307163
-0.306277
-0.306598
-0.300677
-0.312918
-0.312773
-0.312045
-0.310985
-0.309755
-0.308521
-0.307301
-0.306033
-0.306098
-0.298342
-0.314617
-0.313648
-0.312269
-0.310681
-0.309086
-0.307499
-0.305924
-0.305648
-0.296144
-0.3166
-0.315371
-0.313653
-0.311698
-0.309738
-0.307783
-0.306013
-0.305118
-0.294291
-0.318765
-0.31725
-0.315175
-0.31284
-0.310512
-0.308177
-0.306357
-0.304288
-0.292903
-0.319328
-0.316873
-0.314145
-0.311443
-0.308711
-0.306981
-0.30306
-0.292781
-0.321648
-0.31879
-0.315652
-0.312566
-0.309421
-0.30779
-0.301807
-0.297075
-0.320968
-0.317401
-0.313915
-0.310343
-0.308537
-0.301159
-0.307441
-0.319433
-0.315521
-0.311507
-0.309097
-0.30139
-0.305845
-0.321788
-0.317409
-0.312913
-0.309585
-0.301792
-0.302604
-0.319603
-0.314533
-0.310133
-0.301997
-0.299559
-0.31634
-0.310739
-0.301925
-0.296498
-0.311354
-0.301499
-0.29349
-0.3007
-0.290431
-0.287248
-0.299522
-0.287249
-0.300706
-0.290434
-0.311364
-0.301507
-0.293495
-0.316351
-0.310749
-0.301934
-0.296505
-0.319615
-0.314544
-0.310144
-0.302008
-0.299567
-0.321801
-0.317421
-0.312923
-0.309596
-0.301803
-0.302615
-0.319445
-0.315531
-0.311517
-0.309108
-0.301402
-0.305859
-0.320981
-0.317413
-0.313925
-0.310353
-0.308549
-0.301172
-0.307459
-0.321664
-0.318804
-0.315664
-0.312576
-0.309431
-0.307802
-0.301821
-0.297094
-0.319343
-0.316887
-0.314157
-0.311454
-0.308722
-0.306993
-0.303076
-0.292799
-0.318781
-0.317266
-0.315189
-0.312852
-0.310524
-0.308189
-0.30637
-0.304306
-0.292922
-0.316617
-0.315387
-0.313667
-0.311711
-0.309751
-0.307795
-0.306028
-0.305138
-0.294311
-0.314937
-0.314634
-0.313664
-0.312283
-0.310695
-0.309099
-0.307512
-0.30594
-0.305669
-0.296166
-0.312936
-0.31279
-0.312061
-0.311
-0.309769
-0.308535
-0.307316
-0.30605
-0.30612
-0.298366
-0.311033
-0.311042
-0.310549
-0.309787
-0.3089
-0.308026
-0.307179
-0.306296
-0.306621
-0.300703
-0.309187
-0.309366
-0.309094
-0.308618
-0.30806
-0.30754
-0.307069
-0.306606
-0.3072
-0.302971
-0.307369
-0.307741
-0.30768
-0.307471
-0.307226
-0.307047
-0.306951
-0.30691
-0.307825
-0.305006
-0.305563
-0.306154
-0.306295
-0.306334
-0.306379
-0.306522
-0.306787
-0.307145
-0.308453
-0.306728
-0.303767
-0.304602
-0.304935
-0.305203
-0.305511
-0.305947
-0.306537
-0.307298
-0.309002
-0.30808
-0.30199
-0.303091
-0.303607
-0.304079
-0.304621
-0.305317
-0.306203
-0.307355
-0.309246
-0.309198
-0.300256
-0.301636
-0.302323
-0.302976
-0.30372
-0.304638
-0.305783
-0.307255
-0.309295
-0.310328
-0.298598
-0.300261
-0.301103
-0.301914
-0.302826
-0.303929
-0.305291
-0.307021
-0.309232
-0.311077
-0.297057
-0.298994
-0.299975
-0.300917
-0.301967
-0.30322
-0.304755
-0.306689
-0.309073
-0.311507
-0.295677
-0.297867
-0.298968
-0.300017
-0.301176
-0.302544
-0.304215
-0.306302
-0.308846
-0.311718
-0.294504
-0.296915
-0.298114
-0.299247
-0.300487
-0.301941
-0.303711
-0.30591
-0.30859
-0.311784
-0.293581
-0.296168
-0.297442
-0.298637
-0.299935
-0.301448
-0.303288
-0.305564
-0.308348
-0.311768
-0.292943
-0.295654
-0.296978
-0.298214
-0.299548
-0.301099
-0.302982
-0.305306
-0.308161
-0.311723
-0.292617
-0.295391
-0.296741
-0.297996
-0.299349
-0.300917
-0.302821
-0.305168
-0.308058
-0.311689
-0.315911
-0.320031
-0.324836
-0.330332
-0.336552
-0.343497
-0.351133
-0.359376
-0.368084
-0.37704
-0.385942
-0.394391
-0.401881
-0.407797
-0.411434
-0.411988
-0.408465
-0.399872
-0.385418
-0.364278
-0.335993
-0.300649
-0.259082
-0.213001
-0.164745
-0.117023
-0.0724087
-0.0329931
-7.83024e-05
0.0257507
0.0444895
0.0568988
0.063512
0.0658948
0.0642174
0.0605692
0.0539986
0.0473991
0.0378593
0.0300542
0.0177254
0.00920694
-0.316059
-0.320153
-0.324957
-0.330458
-0.336689
-0.343652
-0.351313
-0.359589
-0.368337
-0.37734
-0.386298
-0.394811
-0.402373
-0.408371
-0.412096
-0.412746
-0.409329
-0.400854
-0.386508
-0.365464
-0.337249
-0.301936
-0.260349
-0.214203
-0.165845
-0.117999
-0.0732566
-0.033722
-0.000696561
0.0252297
0.0440519
0.0565326
0.0632058
0.0656396
0.0640057
0.0603938
0.0538559
0.0472823
0.0377699
0.029982
0.0176833
0.00917324
-0.316328
-0.320371
-0.32517
-0.330682
-0.336934
-0.343931
-0.351639
-0.359976
-0.3688
-0.377895
-0.38696
-0.395596
-0.403299
-0.409454
-0.413349
-0.414186
-0.410977
-0.402729
-0.388596
-0.367744
-0.33967
-0.304424
-0.262804
-0.21654
-0.167989
-0.119911
-0.0749254
-0.0351591
-0.00192088
0.0241942
0.0431798
0.0558009
0.0625932
0.0651284
0.0635813
0.0600422
0.05357
0.0470484
0.0375911
0.0298375
0.0175993
0.00910621
-0.316663
-0.320632
-0.325419
-0.330945
-0.337225
-0.344267
-0.352039
-0.36046
-0.36939
-0.378612
-0.387827
-0.396638
-0.40454
-0.410918
-0.415059
-0.416163
-0.413255
-0.405335
-0.391515
-0.370948
-0.34309
-0.307959
-0.26631
-0.219898
-0.171089
-0.122695
-0.077374
-0.0372732
-0.00373611
0.0226512
0.0418747
0.0547029
0.0616719
0.0643588
0.0629425
0.059513
0.0531402
0.0466969
0.0373231
0.0296212
0.0174742
0.00900682
-0.316992
-0.320866
-0.325632
-0.331171
-0.33748
-0.344573
-0.352419
-0.360939
-0.369993
-0.379369
-0.388768
-0.397792
-0.405939
-0.412597
-0.417048
-0.418489
-0.415961
-0.408458
-0.395043
-0.374853
-0.347292
-0.312337
-0.270685
-0.224125
-0.175029
-0.126271
-0.0805273
-0.0400306
-0.00612008
0.0206118
0.0401408
0.0532385
0.0604406
0.063329
0.0620876
0.0588052
0.0525664
0.0462281
0.0369667
0.029334
0.0173093
0.00887655
-0.31724
-0.320996
-0.325729
-0.331278
-0.337611
-0.344753
-0.352674
-0.361298
-0.370488
-0.380032
-0.389634
-0.398899
-0.407326
-0.414304
-0.419116
-0.420951
-0.418869
-0.411858
-0.398934
-0.37921
-0.35203
-0.317328
-0.275724
-0.229053
-0.179686
-0.130524
-0.0843024
-0.0433882
-0.00904389
0.0180921
0.0379859
0.051411
0.0588996
0.0620384
0.0610162
0.0579186
0.0518488
0.0456426
0.0365233
0.0289771
0.0171059
0.00871734
-0.317344
-0.320952
-0.32564
-0.331187
-0.337536
-0.344717
-0.352706
-0.361429
-0.370752
-0.380467
-0.390281
-0.399803
-0.408529
-0.415857
-0.421067
-0.423342
-0.421757
-0.415301
-0.402945
-0.383768
-0.357057
-0.322698
-0.281227
-0.234511
-0.18491
-0.135257
-0.0886875
-0.0472865
-0.0124717
0.0151145
0.0354234
0.0492276
0.0570533
0.0604895
0.05973
0.0568547
0.0509892
0.0449422
0.0359946
0.0285527
0.0168659
0.00853156
-0.317312
-0.32067
-0.325307
-0.33084
-0.337187
-0.34439
-0.352431
-0.361238
-0.370683
-0.380561
-0.390583
-0.400363
-0.409399
-0.41709
-0.422723
-0.425477
-0.424423
-0.418569
-0.406856
-0.388302
-0.362148
-0.328246
-0.28698
-0.24029
-0.190411
-0.140552
-0.0935456
-0.0516638
-0.0163613
0.0117078
0.0324724
0.0467012
0.0549102
0.0586884
0.0582337
0.0556173
0.0499908
0.0441297
0.0353835
0.0280634
0.0165911
0.00832195
-0.317219
-0.320104
-0.324704
-0.330199
-0.336521
-0.343722
-0.351789
-0.360657
-0.370202
-0.380225
-0.39044
-0.400473
-0.409814
-0.417875
-0.423943
-0.427198
-0.426693
-0.421484
-0.410475
-0.39261
-0.367107
-0.333794
-0.292672
-0.246179
-0.196278
-0.146177
-0.0987913
-0.0564554
-0.0206642
0.00790714
0.0291584
0.0438502
0.0524841
0.0566453
0.0565352
0.054213
0.0488589
0.0432096
0.0346935
0.0275124
0.0162837
0.00809148
-0.316277
-0.319456
-0.323822
-0.329247
-0.335521
-0.342687
-0.350751
-0.35965
-0.369266
-0.379406
-0.389787
-0.400064
-0.409692
-0.418116
-0.424621
-0.428389
-0.428437
-0.423946
-0.413609
-0.396488
-0.371695
-0.338943
-0.298438
-0.252132
-0.202276
-0.152028
-0.104341
-0.0615928
-0.0253273
0.00375329
0.0255126
0.0406984
0.0497932
0.0543745
0.0546458
0.0526505
0.0476007
0.0421879
0.033929
0.026904
0.0159461
0.00784324
-0.315275
-0.318566
-0.322678
-0.328007
-0.334202
-0.341296
-0.349318
-0.35821
-0.36786
-0.378085
-0.38861
-0.399075
-0.408983
-0.417754
-0.424684
-0.428958
-0.429538
-0.425745
-0.416208
-0.399874
-0.375865
-0.343802
-0.303916
-0.257966
-0.208286
-0.15801
-0.11011
-0.0670054
-0.0302939
-0.000708694
0.021571
0.0372741
0.0468601
0.0518938
0.0525797
0.0509412
0.0462249
0.0410716
0.0330954
0.0262427
0.0155806
0.00758034
-0.314225
-0.317497
-0.32132
-0.32652
-0.332598
-0.339577
-0.347516
-0.35636
-0.366002
-0.376269
-0.386897
-0.397527
-0.407679
-0.416774
-0.424116
-0.428896
-0.430204
-0.426948
-0.418148
-0.402636
-0.379469
-0.348189
-0.309014
-0.263569
-0.214207
-0.164026
-0.116014
-0.0726234
-0.0355058
-0.00543099
0.0173726
0.033609
0.0437105
0.0492239
0.0503534
0.0490983
0.0447421
0.0398691
0.0321987
0.0255336
0.01519
0.00730578
-0.313165
-0.316347
-0.319813
-0.32484
-0.330761
-0.337581
-0.345391
-0.354143
-0.363732
-0.373997
-0.384683
-0.395438
-0.405795
-0.415181
-0.422906
-0.428167
-0.430021
-0.427461
-0.419402
-0.404723
-0.382433
-0.352011
-0.313649
-0.268848
-0.219945
-0.169993
-0.121979
-0.0783803
-0.040906
-0.0103656
0.0129575
0.0297365
0.0403718
0.0463872
0.0479851
0.0471364
0.0431635
0.0385894
0.0312453
0.0247823
0.0147769
0.00702236
-0.312187
-0.315202
-0.318222
-0.32303
-0.328751
-0.335365
-0.343003
-0.351617
-0.361107
-0.371322
-0.382018
-0.392852
-0.403369
-0.413004
-0.421075
-0.426783
-0.429166
-0.427269
-0.41995
-0.406101
-0.38471
-0.35521
-0.317754
-0.273729
-0.225427
-0.175838
-0.127936
-0.0842155
-0.0464407
-0.0154656
0.00836622
0.0256906
0.0368726
0.043407
0.0454938
0.0450707
0.0415013
0.0372421
0.0302422
0.0239942
0.0143443
0.00673264
-0.311354
-0.314127
-0.316614
-0.321155
-0.326627
-0.332988
-0.340412
-0.348844
-0.358189
-0.368306
-0.378961
-0.389823
-0.40045
-0.410285
-0.418655
-0.424772
-0.427649
-0.426374
-0.419777
-0.406751
-0.386273
-0.357744
-0.321279
-0.278155
-0.23059
-0.181496
-0.133819
-0.0900646
-0.0520501
-0.0206782
0.00364429
0.0215097
0.0332444
0.0403091
0.0429
0.0429174
0.0397679
0.0358369
0.0291963
0.0231749
0.0138948
0.00643886
-0.310694
-0.313141
-0.315033
-0.319265
-0.324436
-0.3305
-0.33767
-0.34588
-0.355035
-0.365006
-0.37557
-0.386407
-0.397088
-0.407068
-0.415683
-0.422161
-0.425495
-0.424793
-0.418885
-0.406664
-0.387105
-0.359584
-0.32418
-0.282063
-0.235356
-0.186879
-0.139539
-0.0958421
-0.0576576
-0.0259375
-0.00115373
0.0172378
0.0295225
0.0371211
0.0402254
0.0406931
0.037976
0.0343836
0.0281143
0.0223297
0.0134311
0.00614291
-0.310159
-0.312175
-0.313482
-0.317392
-0.322212
-0.327943
-0.33483
-0.342783
-0.351708
-0.361487
-0.371909
-0.382666
-0.393343
-0.403407
-0.412204
-0.41901
-0.422742
-0.422558
-0.417295
-0.40585
-0.387203
-0.360715
-0.326426
-0.28541
-0.239678
-0.19194
-0.145051
-0.101511
-0.0632324
-0.0312178
-0.00600521
0.0128958
0.025726
0.033861
0.0374857
0.0384125
0.0361374
0.0328923
0.0270034
0.0214645
0.012956
0.00584656
-0.309646
-0.311122
-0.311945
-0.315558
-0.319973
-0.325342
-0.331922
-0.339589
-0.348247
-0.35779
-0.36802
-0.378643
-0.389257
-0.399344
-0.408257
-0.415478
-0.419365
-0.419662
-0.415019
-0.404346
-0.386637
-0.361247
-0.328176
-0.288392
-0.243781
-0.196919
-0.150593
-0.107283
-0.0689507
-0.0366524
-0.0110037
0.00842532
0.0218219
0.0305151
0.0346785
0.0360805
0.0342598
0.0313725
0.0258714
0.0205869
0.0124737
0.00555202
-0.309914
-0.309813
-0.310372
-0.313706
-0.317621
-0.322581
-0.328813
-0.336147
-0.344487
-0.353735
-0.363711
-0.374135
-0.384625
-0.394677
-0.403638
-0.410627
-0.415186
-0.415955
-0.411968
-0.402144
-0.385489
-0.361349
-0.329667
-0.291283
-0.247937
-0.20206
-0.15636
-0.113304
-0.0749091
-0.0422998
-0.0161793
0.00381336
0.017809
0.0270864
0.0318101
0.033702
0.0323489
0.0298288
0.0247237
0.0197004
0.0119883
0.00526042
-0.309643
-0.306777
-0.308289
-0.311584
-0.315096
-0.319713
-0.325624
-0.332642
-0.340661
-0.349591
-0.359267
-0.369428
-0.379706
-0.389606
-0.398503
-0.40572
-0.410725
-0.4117
-0.408171
-0.399002
-0.383192
-0.360082
-0.329575
-0.292419
-0.250238
-0.205353
-0.160404
-0.117827
-0.0796405
-0.0470092
-0.0206741
-0.000344509
0.0140852
0.0238138
0.0290208
0.0313385
0.0304315
0.0282539
0.0235528
0.0187837
0.0114927
0.00496494
-0.294306
-0.297556
-0.304685
-0.309336
-0.31305
-0.317644
-0.323463
-0.330352
-0.338198
-0.34692
-0.356369
-0.366288
-0.376318
-0.385983
-0.39471
-0.401706
-0.406143
-0.406972
-0.403285
-0.394022
-0.37826
-0.35542
-0.325479
-0.289204
-0.248181
-0.204628
-0.16104
-0.119719
-0.0825563
-0.0506724
-0.0247477
-0.00457142
0.00998553
0.0199593
0.0255891
0.0283033
0.0279177
0.0261237
0.0219614
0.0175081
0.0108085
0.00456296
-0.29442
-0.295925
-0.302237
-0.306842
-0.310451
-0.314832
-0.320454
-0.32712
-0.334634
-0.342889
-0.351746
-0.360965
-0.370192
-0.378944
-0.386661
-0.392685
-0.396188
-0.396209
-0.391848
-0.382195
-0.366463
-0.344189
-0.315429
-0.280924
-0.242133
-0.20105
-0.159918
-0.120808
-0.0854416
-0.0548673
-0.0297304
-0.00991421
0.00468417
0.014923
0.0210514
0.0242867
0.0245581
0.0233034
0.0198253
0.015844
0.00987487
0.00406903
-0.291338
-0.293029
-0.297689
-0.301989
-0.30584
-0.3103
-0.315808
-0.322232
-0.32937
-0.337101
-0.34529
-0.353708
-0.362019
-0.369766
-0.376432
-0.381384
-0.383867
-0.383019
-0.378022
-0.368094
-0.352578
-0.331114
-0.303806
-0.271346
-0.235035
-0.196634
-0.158128
-0.121366
-0.0879042
-0.0587289
-0.0344623
-0.0150768
-0.000507229
0.0099428
0.0165179
0.0202477
0.0211488
0.0204375
0.0176327
0.0141541
0.00890405
0.0035968
-0.285021
-0.287892
-0.29126
-0.294946
-0.298938
-0.303548
-0.308956
-0.315086
-0.321793
-0.328958
-0.336443
-0.344035
-0.351419
-0.358178
-0.363803
-0.367726
-0.369273
-0.367678
-0.362212
-0.352204
-0.337116
-0.316675
-0.291015
-0.260767
-0.227078
-0.191479
-0.155703
-0.121381
-0.0899097
-0.0622141
-0.038896
-0.0200108
-0.00553688
0.00507216
0.012046
0.0162417
0.0177447
0.0175715
0.015426
0.0124653
0.00792133
0.00314788
-0.275806
-0.280257
-0.283144
-0.286237
-0.290142
-0.294807
-0.300092
-0.30589
-0.312112
-0.318665
-0.325418
-0.332165
-0.338616
-0.344392
-0.349041
-0.352035
-0.352759
-0.350558
-0.344798
-0.334911
-0.320457
-0.301235
-0.277391
-0.249484
-0.218503
-0.185762
-0.152753
-0.120903
-0.0914615
-0.0652929
-0.0429832
-0.0246614
-0.0103511
0.000359105
0.00767601
0.0123014
0.0143712
0.014725
0.0132192
0.010787
0.00693299
0.00271859
-0.264541
-0.270477
-0.273467
-0.276212
-0.27993
-0.284539
-0.289672
-0.295132
-0.300852
-0.306778
-0.312792
-0.318706
-0.324252
-0.329096
-0.332844
-0.335004
-0.335028
-0.332365
-0.326479
-0.316889
-0.303236
-0.285369
-0.263429
-0.2379
-0.209619
-0.179698
-0.149409
-0.119998
-0.092575
-0.0679489
-0.0466884
-0.0289843
-0.0149031
-0.00415202
0.00344767
0.00846038
0.0110553
0.0119188
0.0110277
0.00912926
0.00594601
0.00230773
-0.252308
-0.259227
-0.262565
-0.265226
-0.268779
-0.273253
-0.278198
-0.283327
-0.288565
-0.293884
-0.299192
-0.30432
-0.309027
-0.313019
-0.315952
-0.317386
-0.316841
-0.313856
-0.307983
-0.298817
-0.286063
-0.269604
-0.249567
-0.226358
-0.200678
-0.173458
-0.145781
-0.118724
-0.0932719
-0.0701782
-0.0499912
-0.0329499
-0.0191587
-0.00842665
-0.000606077
0.00474749
0.00782198
0.00917275
0.0088678
0.00750201
0.00496834
0.00191484
-0.239689
-0.247137
-0.250865
-0.253613
-0.257062
-0.261369
-0.266096
-0.270907
-0.275704
-0.280467
-0.285131
-0.28955
-0.293509
-0.296751
-0.298974
-0.299796
-0.298808
-0.295624
-0.289869
-0.281204
-0.269384
-0.254316
-0.236106
-0.215093
-0.191855
-0.167171
-0.141953
-0.117132
-0.0935784
-0.0719877
-0.0528838
-0.0365409
-0.0230944
-0.0124392
-0.00445919
0.00118665
0.00469306
0.00650412
0.00675407
0.00591409
0.00400714
0.00153932
-0.227034
-0.2347
-0.238747
-0.241644
-0.245041
-0.24918
-0.253677
-0.258189
-0.262592
-0.266866
-0.270965
-0.274765
-0.27808
-0.280684
-0.282313
-0.282639
-0.281325
-0.278045
-0.272482
-0.264354
-0.253458
-0.239718
-0.22322
-0.204242
-0.183259
-0.160918
-0.137987
-0.115268
-0.0935227
-0.0733911
-0.0553679
-0.0397498
-0.0266959
-0.0161717
-0.0080914
-0.0022026
0.00168713
0.00392803
0.00469965
0.0043733
0.00306869
0.00118063
-0.214578
-0.222235
-0.22649
-0.229531
-0.2329
-0.236884
-0.241156
-0.245388
-0.249445
-0.2533
-0.256915
-0.26019
-0.262963
-0.265037
-0.266186
-0.266131
-0.264596
-0.261302
-0.255983
-0.248404
-0.238399
-0.225902
-0.210982
-0.193866
-0.174942
-0.154749
-0.133928
-0.113166
-0.0931324
-0.0744067
-0.0574522
-0.0425765
-0.0299556
-0.0196117
-0.0114871
-0.00540426
-0.00117975
0.00145781
0.00271645
0.00288671
0.00215858
0.000838554
-0.202427
-0.209929
-0.21429
-0.217436
-0.220779
-0.224617
-0.228677
-0.232653
-0.236406
-0.239904
-0.243114
-0.245951
-0.248279
-0.249919
-0.2507
-0.250369
-0.248699
-0.245456
-0.240415
-0.233384
-0.224223
-0.212877
-0.1994
-0.183977
-0.166925
-0.148688
-0.129803
-0.110859
-0.0924349
-0.0750558
-0.0591495
-0.0450261
-0.0328713
-0.0227515
-0.0146346
-0.00840526
-0.00389373
-0.00089472
0.000815234
0.00146088
0.00128177
0.000513137
-0.190642
-0.197902
-0.202283
-0.205484
-0.208787
-0.212486
-0.216345
-0.220087
-0.223573
-0.226767
-0.229639
-0.232121
-0.234094
-0.235412
-0.235896
-0.235371
-0.233637
-0.230495
-0.225756
-0.219262
-0.210896
-0.200612
-0.188451
-0.174563
-0.159206
-0.142748
-0.125636
-0.108372
-0.0914567
-0.0753609
-0.0604762
-0.0471075
-0.0354446
-0.0255873
-0.0175253
-0.0111951
-0.00644293
-0.00311907
-0.000994302
0.000101913
0.000442754
0.000204689
-0.179277
-0.186234
-0.190565
-0.193773
-0.197017
-0.200575
-0.204243
-0.207768
-0.211018
-0.213952
-0.216545
-0.218736
-0.220426
-0.221486
-0.221769
-0.221123
-0.219382
-0.216379
-0.211959
-0.205987
-0.198368
-0.189061
-0.178098
-0.165601
-0.151779
-0.136936
-0.121444
-0.105729
-0.0902235
-0.0753457
-0.0614505
-0.0488324
-0.0376803
-0.0281181
-0.0201536
-0.0137656
-0.00881744
-0.00520609
-0.00270356
-0.00118459
-0.000354508
-8.63114e-05
-0.168365
-0.174977
-0.179206
-0.18238
-0.185543
-0.188956
-0.19244
-0.195763
-0.198801
-0.201512
-0.203871
-0.205827
-0.207294
-0.208163
-0.208307
-0.207597
-0.205895
-0.203063
-0.198969
-0.193502
-0.186582
-0.178173
-0.168302
-0.157064
-0.144632
-0.131254
-0.117241
-0.102953
-0.0887606
-0.0750339
-0.0620921
-0.0502149
-0.0395859
-0.0303457
-0.0225164
-0.0161107
-0.0110092
-0.00714797
-0.00430505
-0.00239355
-0.0011065
-0.000359283
-0.157931
-0.164171
-0.168259
-0.171365
-0.174427
-0.177689
-0.180992
-0.184126
-0.186971
-0.189487
-0.19165
-0.193416
-0.19471
-0.195439
-0.195495
-0.194768
-0.193141
-0.1905
-0.186734
-0.181751
-0.175484
-0.167902
-0.159024
-0.148929
-0.137754
-0.125706
-0.113041
-0.100065
-0.0870921
-0.0744499
-0.0624219
-0.0512706
-0.0411714
-0.0322745
-0.0246131
-0.0182267
-0.0130122
-0.00893834
-0.0057925
-0.0035205
-0.00181019
-0.000613621
-0.147991
-0.153845
-0.157761
-0.160772
-0.163718
-0.166823
-0.169948
-0.1729
-0.175568
-0.177912
-0.179909
-0.18152
-0.182681
-0.183311
-0.183319
-0.182609
-0.181084
-0.178647
-0.175207
-0.170686
-0.165027
-0.158205
-0.150232
-0.141171
-0.131135
-0.120293
-0.108856
-0.0970835
-0.0852419
-0.0736176
-0.0624614
-0.0520168
-0.0424484
-0.0339111
-0.0264455
-0.020112
-0.0148223
-0.0105724
-0.00716086
-0.00456171
-0.00246301
-0.000848763
-0.138554
-0.144015
-0.147738
-0.150633
-0.153451
-0.156395
-0.159343
-0.162122
-0.164625
-0.166815
-0.16867
-0.170154
-0.171213
-0.171776
-0.171765
-0.171099
-0.169693
-0.167468
-0.164346
-0.160263
-0.155169
-0.149043
-0.141893
-0.133771
-0.124765
-0.115016
-0.104698
-0.0940283
-0.0832328
-0.072561
-0.0622329
-0.0524721
-0.0434308
-0.0352643
-0.0280178
-0.0217672
-0.0164374
-0.0120468
-0.00840641
-0.00551427
-0.00306295
-0.00106424
-0.129621
-0.134691
-0.138207
-0.140972
-0.143652
-0.146433
-0.149208
-0.151818
-0.154167
-0.156217
-0.157947
-0.159327
-0.160307
-0.160826
-0.16082
-0.160214
-0.158939
-0.156927
-0.154112
-0.150441
-0.145871
-0.140383
-0.133983
-0.12671
-0.118637
-0.109879
-0.100578
-0.0909171
-0.0810868
-0.0713037
-0.0617588
-0.0526559
-0.0441338
-0.0363449
-0.0293363
-0.023195
-0.0178574
-0.01336
-0.00952675
-0.00637613
-0.00360852
-0.00125971
-0.121187
-0.125874
-0.129177
-0.1318
-0.134337
-0.136954
-0.139559
-0.142007
-0.14421
-0.146132
-0.147752
-0.149043
-0.149962
-0.150454
-0.150468
-0.149935
-0.148796
-0.146993
-0.144472
-0.141186
-0.1371
-0.132196
-0.126476
-0.119973
-0.112743
-0.104882
-0.0965056
-0.0877668
-0.0788254
-0.0698688
-0.0610618
-0.0525886
-0.0445741
-0.0371654
-0.0304094
-0.0244003
-0.0190842
-0.0145122
-0.0105209
-0.00714619
-0.00409879
-0.001435
-0.113246
-0.117561
-0.120647
-0.123123
-0.125514
-0.12797
-0.130408
-0.1327
-0.134765
-0.136568
-0.13809
-0.139305
-0.140175
-0.14065
-0.140697
-0.140242
-0.139238
-0.137638
-0.135395
-0.132468
-0.128826
-0.124454
-0.119353
-0.113546
-0.107079
-0.100029
-0.0924912
-0.0845936
-0.076469
-0.068279
-0.0601646
-0.0522911
-0.0447697
-0.03774
-0.0312473
-0.0253898
-0.0201216
-0.015505
-0.0113892
-0.00782433
-0.00453344
-0.00159011
-0.105784
-0.109743
-0.112615
-0.114942
-0.117186
-0.119483
-0.12176
-0.123902
-0.125835
-0.127527
-0.128959
-0.13011
-0.130947
-0.131436
-0.131495
-0.131115
-0.130243
-0.128836
-0.126852
-0.124257
-0.121023
-0.117136
-0.112594
-0.107416
-0.101638
-0.0953216
-0.0885443
-0.0814129
-0.0740374
-0.0665564
-0.0590898
-0.0517849
-0.0447394
-0.0380843
-0.031862
-0.026172
-0.0209752
-0.0163418
-0.0121333
-0.00841137
-0.00491272
-0.00172523
-0.098788
-0.102409
-0.105072
-0.107249
-0.109349
-0.111492
-0.113613
-0.115611
-0.117419
-0.119005
-0.120354
-0.121444
-0.122246
-0.122722
-0.122828
-0.122529
-0.121786
-0.120561
-0.118819
-0.116529
-0.113667
-0.11022
-0.106185
-0.101574
-0.0964169
-0.0907629
-0.0846741
-0.0782395
-0.0715494
-0.0647225
-0.0578597
-0.0510916
-0.0445028
-0.0382151
-0.0322671
-0.0267574
-0.0216522
-0.0170276
-0.0127562
-0.00890911
-0.00523747
-0.00184073
-0.0922423
-0.0955449
-0.0980055
-0.100037
-0.101996
-0.10399
-0.105962
-0.107822
-0.10951
-0.110997
-0.112268
-0.113302
-0.114073
-0.114547
-0.114691
-0.114469
-0.113847
-0.112792
-0.111272
-0.109261
-0.106738
-0.103689
-0.10011
-0.0960111
-0.0914128
-0.086356
-0.0808896
-0.0750875
-0.0690233
-0.0627982
-0.0564963
-0.0502328
-0.04408
-0.0381501
-0.0324772
-0.0271577
-0.0221616
-0.0175686
-0.0132622
-0.00932026
-0.00550912
-0.00193718
-0.0861304
-0.0891348
-0.0914026
-0.0932923
-0.0951163
-0.0969677
-0.0987978
-0.100527
-0.102101
-0.103494
-0.10469
-0.105672
-0.106416
-0.106891
-0.107069
-0.106918
-0.106408
-0.105508
-0.104191
-0.102433
-0.100216
-0.0975259
-0.0943579
-0.0907189
-0.0866234
-0.0821041
-0.0771995
-0.0719706
-0.0664766
-0.0608038
-0.0550213
-0.0492303
-0.0434917
-0.037908
-0.0325085
-0.0273859
-0.0225135
-0.0179726
-0.0136566
-0.00964839
-0.00572962
-0.00201532
-0.0804353
-0.0831623
-0.0852476
-0.0870017
-0.0886961
-0.0904123
-0.0921079
-0.093713
-0.0951792
-0.0964823
-0.0976083
-0.0985413
-0.0992593
-0.0997361
-0.0999445
-0.0998577
-0.099448
-0.0986887
-0.0975553
-0.0960268
-0.0940846
-0.0917174
-0.0889183
-0.0856916
-0.0820471
-0.0780109
-0.0736124
-0.0689018
-0.0639263
-0.0587589
-0.053456
-0.0481057
-0.0427586
-0.0375077
-0.0323775
-0.0274562
-0.0227193
-0.0182483
-0.0139458
-0.00989788
-0.00590145
-0.00207605
-0.0751401
-0.0776101
-0.0795241
-0.0811495
-0.0827211
-0.0843098
-0.0858786
-0.0873667
-0.0887309
-0.0899494
-0.0910089
-0.0918948
-0.0925877
-0.0930641
-0.0932993
-0.0932695
-0.09295
-0.0923172
-0.0913485
-0.090025
-0.0883296
-0.0862511
-0.0837819
-0.080924
-0.0776834
-0.0740803
-0.0701367
-0.0658938
-0.0613887
-0.0566825
-0.0518208
-0.0468801
-0.0419015
-0.0369689
-0.032102
-0.0273837
-0.0227916
-0.0184057
-0.0141372
-0.0100738
-0.00602753
-0.00212046
-0.0702278
-0.0724612
-0.0742154
-0.0757196
-0.0771756
-0.0786446
-0.0800948
-0.081473
-0.0827412
-0.0838795
-0.0848758
-0.0857166
-0.0863845
-0.0868583
-0.0871159
-0.0871359
-0.0868963
-0.0863757
-0.0855537
-0.0844129
-0.0829374
-0.0811162
-0.0789411
-0.0764121
-0.0735321
-0.0703164
-0.0667809
-0.0629591
-0.0588794
-0.0545931
-0.0501361
-0.0455745
-0.0409412
-0.0363112
-0.0316999
-0.0271844
-0.0227436
-0.0184554
-0.0142389
-0.010182
-0.00611122
-0.00214974
-0.0656822
-0.0676986
-0.0693048
-0.0706956
-0.0720436
-0.0734009
-0.0747403
-0.0760158
-0.0771939
-0.0782567
-0.0791929
-0.0799902
-0.0806328
-0.0811019
-0.0813774
-0.08144
-0.0812701
-0.0808483
-0.0801559
-0.0791769
-0.0778963
-0.0763034
-0.0743894
-0.0721529
-0.0695938
-0.0667237
-0.0635534
-0.0601097
-0.0564138
-0.0525086
-0.0484215
-0.0442096
-0.0398984
-0.0355546
-0.0311895
-0.0268745
-0.0225893
-0.018409
-0.0142597
-0.0102286
-0.00615622
-0.00216525
-0.0614877
-0.0633059
-0.0647756
-0.0660612
-0.0673087
-0.0685624
-0.0697991
-0.0709789
-0.0720728
-0.0730646
-0.0739438
-0.0746991
-0.0753163
-0.0757784
-0.0760675
-0.0761659
-0.0760559
-0.0757202
-0.0751414
-0.0743047
-0.0731959
-0.0718046
-0.0701216
-0.068144
-0.0658698
-0.0633071
-0.0604625
-0.0573573
-0.0540067
-0.0504461
-0.0466961
-0.0428054
-0.0387933
-0.0347189
-0.0305894
-0.0264707
-0.0223433
-0.0182784
-0.014209
-0.0102204
-0.00616657
-0.00216841
-0.0576296
-0.0592677
-0.0606122
-0.0618006
-0.0629552
-0.0641134
-0.0652551
-0.0663463
-0.0673618
-0.068287
-0.0691123
-0.0698273
-0.0704189
-0.0708722
-0.0711706
-0.0712984
-0.0712394
-0.0709778
-0.0704979
-0.0697855
-0.0688273
-0.0676132
-0.0661334
-0.0643843
-0.062362
-0.0600717
-0.0575167
-0.0547136
-0.0516725
-0.0484226
-0.0449785
-0.0413817
-0.0376461
-0.0338236
-0.0299182
-0.0259901
-0.0220202
-0.0180761
-0.0140966
-0.0101645
-0.00614652
-0.00216075
-0.0540943
-0.0555694
-0.0567998
-0.0578989
-0.0589682
-0.0600386
-0.061093
-0.0621026
-0.0630455
-0.0639087
-0.0646832
-0.0653595
-0.0659257
-0.0663682
-0.0666724
-0.0668237
-0.0668074
-0.0666091
-0.0662143
-0.0656098
-0.0647828
-0.0637235
-0.0624219
-0.0608734
-0.0590728
-0.0570231
-0.0547246
-0.0521901
-0.0494254
-0.0464544
-0.0432868
-0.0399577
-0.0364763
-0.0328882
-0.0291944
-0.0254496
-0.0216352
-0.0178149
-0.0139326
-0.0100683
-0.00610053
-0.00214387
-0.0508695
-0.0521978
-0.0533247
-0.0543423
-0.0553337
-0.056324
-0.0572987
-0.0582334
-0.0591094
-0.059915
-0.060642
-0.0612814
-0.0618225
-0.0622531
-0.0625597
-0.0627292
-0.0627481
-0.0626034
-0.0622813
-0.0617697
-0.0610562
-0.0601313
-0.058985
-0.0576119
-0.0560057
-0.0541674
-0.0520951
-0.0497982
-0.0472794
-0.0445577
-0.0416387
-0.0385522
-0.0353032
-0.0319317
-0.0284362
-0.0248662
-0.0212034
-0.0175074
-0.0137272
-0.0099393
-0.00603321
-0.00211941
-0.0479443
-0.0491413
-0.0501748
-0.0511186
-0.0520394
-0.0529569
-0.0538592
-0.0547257
-0.0555405
-0.0562931
-0.0569758
-0.0575804
-0.058097
-0.0585146
-0.058821
-0.0590041
-0.0590516
-0.0589515
-0.0586911
-0.0582588
-0.0576429
-0.056834
-0.0558222
-0.0546014
-0.0531646
-0.0515111
-0.0496372
-0.0475497
-0.0452482
-0.0427481
-0.0400516
-0.0371835
-0.0341457
-0.030973
-0.0276618
-0.0242567
-0.0207398
-0.0171668
-0.0134908
-0.00978519
-0.00594924
-0.00208905
-0.0453095
-0.0463897
-0.0473397
-0.0482172
-0.0490743
-0.0499264
-0.0507634
-0.0515683
-0.0523274
-0.0530316
-0.0536735
-0.0542455
-0.0547386
-0.0551426
-0.0554465
-0.0556394
-0.0557097
-0.0556464
-0.0554376
-0.0550725
-0.0545397
-0.0538303
-0.052934
-0.0518448
-0.0505546
-0.0490616
-0.0473607
-0.0454563
-0.0433459
-0.0410414
-0.0385424
-0.0358697
-0.0330222
-0.0300304
-0.0268888
-0.0236376
-0.0202593
-0.0168057
-0.0132339
-0.00961366
-0.00585336
-0.00205446
-0.0429578
-0.043935
-0.044811
-0.0456293
-0.0464297
-0.0472235
-0.0480022
-0.0487519
-0.0494611
-0.0501214
-0.050726
-0.0512679
-0.0517387
-0.052129
-0.0524289
-0.0526282
-0.0527163
-0.0526829
-0.0525169
-0.0522081
-0.0517456
-0.0511205
-0.0503229
-0.0493461
-0.0481818
-0.0468272
-0.0452759
-0.0435303
-0.0415864
-0.0394533
-0.0371282
-0.0346285
-0.0319509
-0.029122
-0.0261347
-0.0230253
-0.0197767
-0.0164369
-0.0129668
-0.00943238
-0.00575033
-0.00201734
-0.0408839
-0.0417714
-0.0425825
-0.0433488
-0.0440992
-0.0448416
-0.045569
-0.0462699
-0.0469346
-0.0475558
-0.048127
-0.0486414
-0.0490914
-0.0494683
-0.0497631
-0.0499662
-0.0500678
-0.0500584
-0.0499275
-0.0496653
-0.0492615
-0.0487072
-0.0479927
-0.0471112
-0.0460539
-0.0448172
-0.0433938
-0.0417847
-0.0399842
-0.0379995
-0.0358258
-0.0334775
-0.0309498
-0.0282656
-0.0254167
-0.0224359
-0.0193065
-0.0160731
-0.0126997
-0.00924896
-0.00564484
-0.00197938
-0.039085
-0.0398955
-0.0406507
-0.0413719
-0.042079
-0.0427769
-0.0434598
-0.0441183
-0.0447443
-0.0453311
-0.0458727
-0.0463627
-0.0467937
-0.0471581
-0.0474471
-0.047652
-0.0477637
-0.0477732
-0.0476705
-0.0474463
-0.0470907
-0.0465951
-0.0459498
-0.0451477
-0.04418
-0.0430423
-0.0417267
-0.040233
-0.0385544
-0.0366962
-0.0346522
-0.0324344
-0.0300366
-0.0274786
-0.0247516
-0.0218852
-0.018863
-0.0157265
-0.0124427
-0.00907091
-0.00554155