/*--------------------------------*- C++ -*----------------------------------*\
  =========                 |
  \\      /  F ield         | OpenFOAM: The Open Source CFD Toolbox
   \\    /   O peration     | Website:  https://openfoam.org
    \\  /    A nd           | Version:  7
     \\/     M anipulation  |
\*---------------------------------------------------------------------------*/
FoamFile
{
    version     2.0;
    format      ascii;
    class       surfaceScalarField;
    location    "10";
    object      phi;
}
// * * * * * * * * * * * * * * * * * * * * * * * * * * * * * * * * * * * * * //

dimensions      [0 3 -1 0 0 0 0];

internalField   nonuniform List<scalar> 
12578
(
-1.08686e-05
1.0815e-05
5.35958e-08
-3.82377e-05
2.72323e-05
1.36734e-07
-7.98043e-05
4.13632e-05
2.03395e-07
-0.000133842
5.37845e-05
2.52939e-07
-0.00019928
6.51519e-05
2.86509e-07
-0.000275852
7.62655e-05
3.06475e-07
-0.00036426
8.80926e-05
3.15301e-07
-0.000466398
0.000101823
3.14516e-07
-0.000585464
0.000118762
3.04169e-07
0.000140825
2.82712e-07
-0.000726571
-1.0573e-05
2.1388e-05
-3.72698e-05
5.39292e-05
-7.78428e-05
8.19362e-05
-0.000130556
0.000106498
-0.00019427
0.000128865
-0.000268581
0.000150577
-0.000353984
0.000173496
-0.000452092
0.000199932
-0.000565755
0.000232425
0.00027458
-0.00069951
-1.00006e-05
3.13887e-05
-3.53907e-05
7.93192e-05
-7.40268e-05
0.000120572
-0.000124155
0.000156626
-0.000184498
0.000189209
-0.000254395
0.000220473
-0.000333937
0.000253038
-0.000424194
0.000290189
-0.000527354
0.000335584
0.000394066
-0.00064684
-9.18937e-06
4.0578e-05
-3.27134e-05
0.000102843
-6.85698e-05
0.000156429
-0.000114976
0.000203032
-0.000170464
0.000244698
-0.000234004
0.000284013
-0.000305119
0.000324153
-0.000384105
0.000369174
-0.000472237
0.000423717
0.000493192
-0.000571363
-8.19174e-06
4.87698e-05
-2.93965e-05
0.000124048
-6.17728e-05
0.000188805
-0.000103498
0.000244757
-0.00015287
0.00029407
-0.000208409
0.000339552
-0.000268939
0.000384682
-0.000333793
0.000434028
-0.000403166
0.00049309
0.000566969
-0.000476943
-7.07101e-06
5.58408e-05
-2.56321e-05
0.000142609
-5.40022e-05
0.000217175
-9.03061e-05
0.000281061
-0.000132578
0.000336342
-0.000178837
0.000385811
-0.000227118
0.000432963
-0.000275649
0.00048256
-0.000323449
0.00054089
0.000611679
-0.000368159
-5.89597e-06
6.17367e-05
-2.16312e-05
0.000158344
-4.56627e-05
0.000241207
-7.60474e-05
0.000311445
-0.000110542
0.000370836
-0.000146642
0.000421911
-0.000181556
0.000467877
-0.000212296
0.0005133
-0.000236667
0.000565261
0.000624911
-0.0002499
-4.73548e-06
6.64722e-05
-1.76069e-05
0.000171216
-3.7166e-05
0.000260766
-6.13821e-05
0.000335661
-8.77328e-05
0.000397187
-0.000113202
0.00044738
-0.000134176
0.000488852
-0.00014636
0.000525484
-0.000146286
0.000565187
0.000605713
-0.000127087
-3.65313e-06
7.01253e-05
-1.37579e-05
0.00018132
-2.88975e-05
0.000275905
-4.69286e-05
0.000353693
-6.50566e-05
0.000415315
-7.97858e-05
0.000462109
-8.6742e-05
0.000495808
-8.02496e-05
0.000518992
-5.46673e-05
0.000539605
0.000558353
-7.3072e-06
-2.70231e-06
7.28277e-05
-1.02524e-05
0.000188871
-2.1184e-05
0.000286837
-3.32064e-05
0.000365715
-4.32592e-05
0.000425368
-4.74077e-05
0.000466257
-4.06148e-05
0.000489015
-1.63587e-05
0.000494736
3.50353e-05
0.000488211
0.000475264
0.000118124
-1.92218e-06
7.47498e-05
-7.21457e-06
0.000194163
-1.4264e-05
0.000293886
-2.05845e-05
0.000372035
-2.2842e-05
0.000427625
-1.669e-05
0.000460105
3.66306e-06
0.000468662
4.57009e-05
0.000452698
0.000119752
0.00041416
0.000356335
0.00023868
-1.33467e-06
7.60845e-05
-4.71281e-06
0.000197541
-8.26372e-06
0.000297437
-9.23745e-06
0.000373009
-3.98746e-06
0.000422375
1.22391e-05
0.000443879
4.58017e-05
0.000435099
0.000105622
0.000392878
0.00020388
0.000315902
0.000201258
0.000358958
-9.42637e-07
7.70271e-05
-2.75356e-06
0.000199352
-3.17972e-06
0.000297863
8.91182e-07
0.000368938
1.34921e-05
0.000409774
3.98927e-05
0.000417478
8.71761e-05
0.000387816
0.000165399
0.000314655
0.00029002
0.000191281
7.71639e-06
0.000483561
-7.29377e-07
7.77565e-05
-1.27786e-06
0.000199901
1.12628e-06
0.000295459
1.00728e-05
0.000359992
3.01712e-05
0.000389676
6.73739e-05
0.000380275
0.000129715
0.000325475
0.000228521
0.000215849
0.000383726
3.60762e-05
-0.000227677
0.000619119
-6.60522e-07
-1.40081e-07
0.00019938
4.91065e-06
0.000290408
1.88359e-05
0.000346067
4.69896e-05
0.000361522
9.63434e-05
0.000330922
0.000176282
0.000245536
0.000299599
9.25319e-05
0.000492248
-0.000156573
-0.000508285
0.000772856
7.50356e-07
0.000197939
8.55921e-06
0.0002826
2.78876e-05
0.000326738
6.51861e-05
0.000324224
0.000128878
0.00026723
0.000230253
0.000144161
0.00038384
-6.10557e-05
0.000622816
-0.000395549
-0.000835787
0.000950318
1.68407e-06
0.000195501
1.25449e-05
0.000271739
3.8087e-05
0.000301196
8.62041e-05
0.000276107
0.000167268
0.000186166
0.000295088
1.63412e-05
0.000486309
-0.000252276
0.000780539
-0.000689779
-0.00120805
0.0011528
2.88765e-06
1.7395e-05
0.000257231
5.0381e-05
0.00026821
0.000111575
0.000214913
0.000213799
8.39421e-05
0.000373897
-0.000143757
0.000611264
-0.000489643
0.000966436
-0.00104495
-0.00161744
0.00137583
2.3656e-05
0.000238188
6.57318e-05
0.000226134
0.000142788
0.000137856
0.000270503
-4.37727e-05
0.000468928
-0.000342183
0.000761247
-0.000781962
0.00117679
-0.00146049
-0.00205387
0.00161321
3.18565e-05
8.5045e-05
0.000172946
0.000181158
4.17429e-05
0.000338925
-0.000201539
0.000581113
-0.00058437
0.000934648
-0.0011355
0.00140545
-0.0019313
-0.0025251
0.00187668
0.000109101
0.000227706
-7.68617e-05
0.000419911
-0.000393744
0.000709807
-0.000874266
0.00112356
-0.00154925
0.00164048
-0.00244822
-0.00326163
0.00237701
0.000283059
-0.000221423
0.000513447
-0.000624132
0.000852925
-0.00121374
0.00131889
-0.00201522
0.00187932
-0.00300864
-0.00398037
0.00259806
0.000347345
0.00061845
-0.000895237
0.00100635
-0.00160165
0.00151321
-0.00252207
0.00209976
-0.0035952
-0.0046561
0.0027755
0.000732599
0.00116367
-0.00203272
0.00169738
-0.00305578
0.00228374
-0.00418156
-0.00527628
0.00290392
0.00131697
0.00186005
-0.00359885
0.00242367
-0.00474519
-0.00583003
0.00297743
0.00199208
0.00251583
-0.00526893
-0.00631346
0.00299926
0.00256126
-0.00672879
0.00297659
0.00291725
0.00256499
0.00574354
0.00673018
0.00291785
0.00256193
0.00527025
0.00631487
0.00297724
0.00199269
0.00359986
0.00251652
0.00474643
0.00583142
0.00299997
0.00131739
0.00203325
0.00186063
0.00305662
0.00242437
0.00418268
0.00527761
0.00297818
0.000732804
0.000895379
0.00116403
0.00160202
0.00169792
0.00252274
0.00228443
0.00359617
0.00465734
0.0029047
0.000347417
0.000221373
0.000618611
0.000624185
0.00100665
0.00121397
0.00151368
0.00201571
0.00210041
0.00300944
0.00398146
0.00277629
0.000283113
7.67727e-05
0.000513573
0.000393725
0.000853168
0.000874379
0.0013193
0.00154957
0.0018799
0.00244885
0.00326254
0.00259882
0.000109115
-0.000173072
0.00022775
-4.18627e-05
0.000420013
0.000201463
0.000710005
0.000584387
0.0011239
0.00113567
0.00164099
0.00193176
0.00252582
0.00237771
3.18595e-05
-0.0002383
8.5061e-05
-0.000226273
0.0001812
-0.000138002
0.000339014
4.3649e-05
0.00058128
0.000342121
0.000934941
0.000782012
0.00140591
0.00146078
0.00205446
0.00187728
2.36639e-05
-0.00025735
6.57535e-05
-0.000268363
0.000142834
-0.000215083
0.000270589
-8.41056e-05
0.000469078
0.000143632
0.000761496
0.000489594
0.00117719
0.00104509
0.00161789
0.00161376
2.89237e-06
-0.000195578
1.74091e-05
-0.000271867
5.0411e-05
-0.000301365
0.000111629
-0.000276301
0.000213889
-0.000186365
0.000374041
-1.65198e-05
0.000611486
0.000252148
0.000966787
0.000689788
0.00120835
0.00137632
1.69254e-06
-0.000198023
1.2566e-05
-0.00028274
3.81268e-05
-0.000326926
8.62693e-05
-0.000324443
0.000167368
-0.000267463
0.000295234
-0.000144386
0.000486518
6.08646e-05
0.00078085
0.000395455
0.000835953
0.00115325
-6.87028e-07
-7.8446e-05
7.62333e-07
-0.000199472
8.58725e-06
-0.000290565
2.79372e-05
-0.000346276
6.52632e-05
-0.00036177
0.000128989
-0.000331189
0.000230406
-0.000245803
0.000384046
-9.27754e-05
0.000623101
0.0001564
0.000508331
0.000950724
-6.56061e-07
-7.77899e-05
-1.22337e-07
-0.000200006
4.9453e-06
-0.000295633
1.88946e-05
-0.000360225
4.70779e-05
-0.000389953
9.64663e-05
-0.000380577
0.000176445
-0.000325782
0.000299808
-0.000216138
0.000492518
-3.63102e-05
0.000227621
0.000773228
-7.23969e-07
-7.70659e-05
-1.25905e-06
-0.000199471
1.16593e-06
-0.000298058
1.01391e-05
-0.000369198
3.02686e-05
-0.000410082
6.75063e-05
-0.000417815
0.000129886
-0.000388162
0.000228734
-0.000314986
0.000383988
-0.000191565
-7.85701e-06
0.000619466
-9.36432e-07
-7.61295e-05
-2.73229e-06
-0.000197675
-3.13582e-06
-0.000297654
9.62763e-07
-0.000373297
1.35959e-05
-0.000422715
4.00314e-05
-0.000444251
8.73521e-05
-0.000435482
0.000165614
-0.000393247
0.000290277
-0.000316228
-0.000201469
0.000483889
-1.32786e-06
-7.48017e-05
-4.68981e-06
-0.000194313
-8.21717e-06
-0.000294127
-9.16228e-06
-0.000372352
-3.88036e-06
-0.000427997
1.23804e-05
-0.000460512
4.59791e-05
-0.000469081
0.000105836
-0.000453104
0.000204132
-0.000414525
-0.000356608
0.000359271
-1.91499e-06
-7.28867e-05
-7.19061e-06
-0.000189038
-1.42162e-05
-0.000287101
-2.05083e-05
-0.00036606
-2.27346e-05
-0.000425771
-1.655e-05
-0.000466696
3.8347e-06
-0.000489466
4.59105e-05
-0.00049518
0.000119996
-0.000488611
-0.00047559
0.000238978
-2.69498e-06
-7.01917e-05
-1.02283e-05
-0.000181504
-2.11364e-05
-0.000276193
-3.31313e-05
-0.000354065
-4.31543e-05
-0.000415748
-4.7272e-05
-0.000462578
-4.04473e-05
-0.000496291
-1.61636e-05
-0.000519463
3.52624e-05
-0.000540037
-0.000558737
0.000118409
-3.64588e-06
-6.65458e-05
-1.37342e-05
-0.000171416
-2.88514e-05
-0.000261076
-4.68565e-05
-0.00033606
-6.49567e-05
-0.000397648
-7.96574e-05
-0.000447878
-8.65843e-05
-0.000489364
-8.00612e-05
-0.000525986
-5.4441e-05
-0.000565657
-0.000606103
-7.07485e-06
-4.72852e-06
-6.18173e-05
-1.75844e-05
-0.00015856
-3.71225e-05
-0.000241538
-6.13148e-05
-0.000311867
-8.76402e-05
-0.000371322
-0.000113083
-0.000422435
-0.000134031
-0.000468416
-0.000146187
-0.00051383
-0.000146083
-0.000565761
-0.000625342
-0.000126844
-5.8895e-06
-5.59278e-05
-2.16105e-05
-0.000142839
-4.5623e-05
-0.000217525
-7.59862e-05
-0.000281504
-0.000110458
-0.000336851
-0.000146535
-0.000386358
-0.000181426
-0.000433525
-0.000212141
-0.000483115
-0.000236485
-0.000541417
-0.000612144
-0.000249683
-7.0652e-06
-4.88626e-05
-2.56137e-05
-0.000124291
-5.39671e-05
-0.000189172
-9.02524e-05
-0.000245219
-0.000132505
-0.000294598
-0.000178744
-0.000340119
-0.000227004
-0.000385265
-0.000275514
-0.000434605
-0.000323291
-0.00049364
-0.000567464
-0.000367971
-8.18676e-06
-4.06758e-05
-2.93807e-05
-0.000103097
-6.1743e-05
-0.00015681
-0.000103453
-0.000203509
-0.000152809
-0.000245242
-0.000208332
-0.000284597
-0.000268844
-0.000324752
-0.00033368
-0.000369769
-0.000403032
-0.000424287
-0.000493712
-0.000476785
-9.18535e-06
-3.14905e-05
-3.27007e-05
-7.95812e-05
-6.8546e-05
-0.000120964
-0.00011494
-0.000157115
-0.000170415
-0.000189766
-0.000233942
-0.00022107
-0.000305044
-0.000253651
-0.000384015
-0.000290798
-0.000472131
-0.000336171
-0.000394606
-0.000571237
-9.99769e-06
-2.14928e-05
-3.53814e-05
-5.41975e-05
-7.40094e-05
-8.23364e-05
-0.000124128
-0.000106996
-0.000184463
-0.000129431
-0.000254351
-0.000151182
-0.000333883
-0.000174118
-0.000424129
-0.000200552
-0.000527277
-0.000233023
-0.000275134
-0.000646749
-1.05712e-05
-1.09216e-05
-3.72641e-05
-2.75045e-05
-7.78322e-05
-4.17683e-05
-0.00013054
-5.42886e-05
-0.000194248
-6.57231e-05
-0.000268554
-7.68766e-05
-0.000353951
-8.87212e-05
-0.000452053
-0.00010245
-0.000565708
-0.000119367
-0.000141387
-0.000699455
-1.0868e-05
-3.82358e-05
-7.98008e-05
-0.000133836
-0.000199273
-0.000275843
-0.000364249
-0.000466385
-0.000585448
-0.000726553
-0.000808158
8.13981e-05
1.89083e-07
-0.000894103
8.57845e-05
1.59998e-07
-0.000983698
8.9469e-05
1.26478e-07
-0.00107667
9.28836e-05
8.85462e-08
-0.00117265
9.59285e-05
4.64716e-08
-0.00127109
9.84476e-05
6.71023e-10
-0.00137127
0.000100221
-4.83229e-08
-0.00147217
0.000101008
-1.00012e-07
-0.00157257
0.00010055
-1.53888e-07
-0.00167093
9.85692e-05
-2.09615e-07
-0.00176544
9.47748e-05
-2.67139e-07
-0.00185397
8.88614e-05
-3.26742e-07
-0.00193409
8.05096e-05
-3.88877e-07
-0.00200302
6.93795e-05
-4.53976e-07
-0.00205765
5.51494e-05
-5.21999e-07
-0.00209453
3.74792e-05
-5.95262e-07
-0.00210933
1.54822e-05
-6.79542e-07
-0.00209766
-1.09521e-05
-7.24447e-07
-0.00205552
-4.13404e-05
-7.93386e-07
-0.00197834
-7.63401e-05
-8.44223e-07
-0.00186228
-0.000115192
-8.64367e-07
-0.00170496
-0.000156479
-8.42237e-07
-0.00150625
-0.00019794
-7.69641e-07
-0.001269
-0.000236607
-6.416e-07
-0.000998923
-0.000269616
-4.63545e-07
-0.000703817
-0.000294859
-2.46248e-07
-0.000392556
-0.000311256
-5.42942e-09
-7.43891e-05
-0.000318415
2.47716e-07
0.000243017
-0.000317885
4.78823e-07
0.000551862
-0.000309534
6.88318e-07
0.00084797
-0.00029696
8.52408e-07
0.00112559
-0.000278587
9.63102e-07
0.00138468
-0.000260099
1.01363e-06
0.0016209
-0.000237234
1.00946e-06
0.00183827
-0.000218309
9.40886e-07
0.00203215
-0.00019472
8.42448e-07
0.0022108
-0.000179324
6.7793e-07
0.00236691
-0.000156643
5.26213e-07
0.00251356
-0.000146956
3.13191e-07
0.00263907
-0.000125654
1.39692e-07
0.00276171
-0.000122603
-3.63574e-08
-0.000104759
-2.50308e-07
-0.000778453
0.000160341
-0.000861769
0.0001691
-0.000948747
0.000176447
-0.0010391
0.000183239
-0.00113245
0.000189273
-0.00122825
0.000194249
-0.00132576
0.000197735
-0.00142401
0.000199252
-0.00152174
0.000198288
-0.00161747
0.000194294
-0.00170939
0.000186693
-0.0017954
0.000174879
-0.00187312
0.000158222
-0.00193979
0.00013605
-0.00199235
0.000107714
-0.00202744
7.2571e-05
-0.00204081
2.88483e-05
-0.00202816
-2.36025e-05
-0.00198549
-8.40112e-05
-0.00190828
-0.00015355
-0.00179272
-0.000230749
-0.00163643
-0.000312766
-0.00143925
-0.000395119
-0.00120405
-0.000471812
-0.000936499
-0.000537167
-0.000644368
-0.00058699
-0.000336462
-0.000619162
-2.19306e-05
-0.000632946
0.000291605
-0.00063142
0.000596523
-0.000614452
0.000888692
-0.00058913
0.0011625
-0.000552397
0.0014179
-0.000515492
0.00165068
-0.000470013
0.00186479
-0.000432422
0.00205573
-0.000385665
0.00223163
-0.000355222
0.00238537
-0.000310385
0.00252976
-0.000291346
0.00265343
-0.000249323
0.00277426
-0.000243427
-0.000208362
-0.00072064
0.000234141
-0.000798806
0.000247267
-0.000880658
0.000258299
-0.000965896
0.000268476
-0.00105411
0.000277482
-0.00114475
0.000284892
-0.00123709
0.000290076
-0.00133016
0.000292327
-0.00142276
0.000290885
-0.0015134
0.000284938
-0.00160035
0.000273633
-0.00168155
0.000256079
-0.00175467
0.000231344
-0.00181707
0.000198447
-0.00186575
0.000156403
-0.0018975
0.000104318
-0.00190824
3.9586e-05
-0.00189385
-3.79891e-05
-0.00185032
-0.000127544
-0.00177325
-0.00023062
-0.00165886
-0.000345142
-0.00150476
-0.000466864
-0.00131071
-0.000589166
-0.0010796
-0.000702927
-0.000817025
-0.000799738
-0.00053068
-0.000873335
-0.000229246
-0.000920596
7.82729e-05
-0.000940465
0.000384455
-0.000937603
0.000681917
-0.000911913
0.000966623
-0.000873836
0.00123321
-0.000818983
0.00148162
-0.000763898
0.00170788
-0.000696273
0.00191582
-0.000640366
0.0021012
-0.000571049
0.00227188
-0.0005259
0.0024211
-0.000459607
0.0025612
-0.000431443
0.00268135
-0.000369471
0.0027987
-0.000360776
-0.000309266
-0.000637798
0.000300577
-0.000708512
0.00031798
-0.000782942
0.000332728
-0.00086078
0.000346315
-0.000941582
0.000358284
-0.0010248
0.000368115
-0.00110973
0.000375
-0.00119542
0.000378016
-0.0012807
0.000376166
-0.00136415
0.000368388
-0.00144408
0.000353567
-0.00151854
0.00033054
-0.00158529
0.000298093
-0.00164181
0.00025496
-0.00168523
0.000199828
-0.00171249
0.000131577
-0.00171979
4.68914e-05
-0.00170326
-5.45212e-05
-0.00165886
-0.000171945
-0.00158238
-0.000307105
-0.00147003
-0.000457486
-0.00131944
-0.000617462
-0.00113019
-0.000778412
-0.000905177
-0.000927939
-0.000649879
-0.00105504
-0.000371832
-0.00115138
-7.94009e-05
-0.00121303
0.000218052
-0.00123792
0.000513982
-0.00123353
0.000801112
-0.00119904
0.00107552
-0.00114825
0.00133217
-0.00107563
0.00157096
-0.00100269
0.00178826
-0.000913566
0.0019877
-0.000839814
0.00216542
-0.000748765
0.00232888
-0.000689361
0.00247185
-0.000602579
0.00260599
-0.000565578
0.00272124
-0.000484725
0.00283374
-0.000473272
-0.00040639
-0.000534195
0.000357829
-0.00059547
0.000379255
-0.000660482
0.000397741
-0.000728942
0.000414774
-0.000800378
0.00042972
-0.000874246
0.000441983
-0.000949856
0.000450609
-0.00102631
0.000454473
-0.0011025
0.000452354
-0.00117707
0.000442955
-0.00124841
0.000424911
-0.00131468
0.00039681
-0.00137376
0.000357171
-0.00142327
0.000304472
-0.00146054
0.000237092
-0.00148263
0.000153674
-0.00148613
5.03878e-05
-0.00146741
-7.32468e-05
-0.00142243
-0.000216917
-0.00134721
-0.000382324
-0.00123797
-0.000566733
-0.00109226
-0.000763169
-0.000909471
-0.000961199
-0.000692465
-0.00114495
-0.000446485
-0.00130102
-0.000178807
-0.00141906
0.000101917
-0.00149375
0.00038729
-0.00152329
0.000670771
-0.00151701
0.00094544
-0.00147371
0.00120752
-0.00141033
0.0014523
-0.00132041
0.00167966
-0.00123005
0.0018863
-0.0011202
0.00207564
-0.00102916
0.00224424
-0.000917362
0.00239909
-0.000844213
0.0025346
-0.000738092
0.00266159
-0.000692564
0.00277097
-0.000594107
0.00287762
-0.000579916
-0.000498935
-0.000414877
0.000404546
-0.000465145
0.000429523
-0.000519125
0.000451721
-0.00057659
0.000472238
-0.000637069
0.000490199
-0.000700027
0.000504941
-0.000764815
0.000515397
-0.000830601
0.000520259
-0.000896345
0.000518099
-0.000960783
0.000507394
-0.00102242
0.000486547
-0.00107952
0.000453914
-0.00113012
0.000407762
-0.00117199
0.000346344
-0.00120266
0.000267761
-0.00121935
0.000170366
-0.00121902
5.0056e-05
-0.00119832
-9.39447e-05
-0.00115325
-0.00026199
-0.00108005
-0.000455519
-0.00097494
-0.000671844
-0.000835424
-0.000902685
-0.000660591
-0.00113603
-0.000453238
-0.0013523
-0.000218216
-0.00153604
3.75772e-05
-0.00167485
0.00030404
-0.00176021
0.000575691
-0.00179494
0.000845143
-0.00178647
0.00110591
-0.00173448
0.00135436
-0.00165878
0.0015861
-0.00155215
0.00180096
-0.00144491
0.00199598
-0.00131522
0.00217433
-0.00120751
0.00233301
-0.00107605
0.00247849
-0.000989693
0.00260589
-0.000865489
0.00272506
-0.000811741
0.00282803
-0.000697075
0.00292824
-0.000680128
-0.000586426
-0.000285214
0.000439861
-0.000323403
0.000467712
-0.000365186
0.000493505
-0.000410456
0.000517509
-0.000458787
0.00053853
-0.000509673
0.000555827
-0.000562525
0.000568249
-0.000616596
0.000574331
-0.000670945
0.000572447
-0.000724418
0.000560867
-0.00077564
0.00053777
-0.000823022
0.000501296
-0.000864725
0.000449465
-0.000898711
0.00038033
-0.000922701
0.000291752
-0.000934062
0.000181726
-0.000930107
4.61012e-05
-0.000907777
-0.000116274
-0.000863085
-0.000306682
-0.000792559
-0.000526045
-0.000692415
-0.000771988
-0.000560099
-0.001035
-0.000394366
-0.00130177
-0.000197721
-0.00154894
2.57002e-05
-0.00175946
0.000264975
-0.00191413
0.00051745
-0.00201269
0.000774062
-0.00205155
0.00102838
-0.00204079
0.00127434
-0.00198043
0.00150841
-0.00189286
0.00172654
-0.00177027
0.00192844
-0.00164682
0.00211149
-0.00149827
0.00227857
-0.00137458
0.00242712
-0.0012246
0.00256303
-0.0011256
0.00268216
-0.000984622
0.00279336
-0.000922939
0.00288978
-0.000793502
0.0029834
-0.000773742
-0.000668706
-0.000150467
0.00046324
-0.000175916
0.000493162
-0.000204904
0.000522492
-0.000237247
0.000549852
-0.000272668
0.000573951
-0.000310721
0.000593879
-0.000350905
0.000608433
-0.000392583
0.000616009
-0.000434937
0.000614801
-0.000476949
0.000602878
-0.000517381
0.000578201
-0.000554799
0.000538715
-0.000587505
0.000482171
-0.000613624
0.000406449
-0.000631061
0.000309189
-0.000637351
0.000188016
-0.000630045
3.87954e-05
-0.000606393
-0.000139926
-0.000562426
-0.00035065
-0.000494924
-0.000593546
-0.00040018
-0.000866732
-0.000275554
-0.00115963
-0.000119096
-0.00145822
6.52313e-05
-0.00173327
0.00027182
-0.00196605
0.000497539
-0.00213985
0.00073436
-0.00224951
0.000974954
-0.00229215
0.00121339
-0.00227922
0.00144398
-0.00221102
0.00166334
-0.00211222
0.00186768
-0.00197461
0.0020566
-0.00183574
0.00222777
-0.00166944
0.00238373
-0.00153054
0.00252238
-0.00136325
0.00264896
-0.00125218
0.00276009
-0.00109575
0.00286356
-0.00102641
0.00295367
-0.00088362
0.0030409
-0.000860966
-0.000745916
-1.35536e-05
0.000469486
-2.78189e-05
0.000507427
-4.39316e-05
0.000538605
-6.30881e-05
0.000569009
-8.53034e-05
0.000596166
-0.000110176
0.000618752
-0.000137328
0.000635584
-0.000166268
0.000644949
-0.000196332
0.000644865
-0.000226657
0.000633204
-0.000256156
0.0006077
-0.000283581
0.00056614
-0.000307352
0.000505941
-0.000325756
0.000424853
-0.000336841
0.000320274
-0.000338355
0.000189529
-0.000327884
2.8325e-05
-0.000303102
-0.000164707
-0.000259875
-0.000393878
-0.00019526
-0.000658162
-0.000105463
-0.000956529
1.29782e-05
-0.00127807
0.000155204
-0.00160045
0.000325425
-0.00190349
0.000518598
-0.00215922
0.000728602
-0.00234985
0.000948853
-0.00246976
0.00117274
-0.00251603
0.0013948
-0.00250128
0.00160973
-0.00242596
0.00181428
-0.00231676
0.0020049
-0.00216523
0.00218109
-0.00201192
0.00234074
-0.00182909
0.00248604
-0.00167585
0.00261529
-0.0014925
0.0027331
-0.00136998
0.00283678
-0.00119943
0.00293308
-0.00112271
0.0030174
-0.000967939
0.00309874
-0.000942303
-0.00081844
0.000118909
0.000468701
0.000117321
0.000509015
0.000113533
0.000542393
0.00010706
0.000575482
9.77777e-05
0.000605448
8.59469e-05
0.000630583
7.17826e-05
0.000649749
5.5592e-05
0.00066114
3.78528e-05
0.000662605
1.92297e-05
0.000651827
5.70437e-07
0.000626359
-1.67992e-05
0.000583509
-3.17397e-05
0.000520882
-4.25586e-05
0.000435672
-4.74009e-05
0.000325116
-4.41277e-05
0.000186256
-3.03055e-05
1.45027e-05
-2.93237e-06
-0.000192081
3.82335e-05
-0.000435043
9.90932e-05
-0.000719021
0.000182253
-0.00103969
0.000289985
-0.0013858
0.000423949
-0.00173441
0.000581706
-0.00206125
0.000759976
-0.00233749
0.00095352
-0.00254339
0.00115661
-0.00267285
0.00136335
-0.00272277
0.00156875
-0.00270669
0.00176793
-0.00262514
0.00195775
-0.00250658
0.00213491
-0.00234239
0.00229875
-0.00217576
0.00244739
-0.00197773
0.00258266
-0.00181112
0.00270319
-0.00161302
0.00281295
-0.00147975
0.00290992
-0.0012964
0.00299982
-0.00121261
0.00307903
-0.00104715
0.0031552
-0.00101847
-0.000886849
0.000249395
0.000457986
0.000257726
0.000500685
0.000264885
0.000535233
0.000270015
0.000570352
0.000272838
0.000602625
0.000273436
0.000629986
0.000271809
0.000651376
0.00026804
0.000664909
0.000262383
0.000668262
0.000255284
0.000658926
0.000247434
0.00063421
0.000239714
0.000591229
0.000233373
0.000527223
0.000229842
0.000439203
0.00023084
0.000324119
0.000238375
0.000178721
0.000254655
-1.77669e-06
0.000281816
-0.000219242
0.000323514
-0.000476742
0.000382155
-0.000777662
0.000460651
-0.00111818
0.000561053
-0.0014862
0.000684619
-0.00185798
0.000829311
-0.00220594
0.000992225
-0.00250041
0.0011689
-0.00272007
0.0013545
-0.00285846
0.00154388
-0.00291214
0.00173258
-0.00289539
0.00191609
-0.00280865
0.00209141
-0.0026819
0.00225546
-0.00250644
0.00240745
-0.00232775
0.00254568
-0.00211595
0.00267161
-0.00193705
0.00278416
-0.00172558
0.00288671
-0.0015823
0.00297778
-0.00138746
0.00306215
-0.00129698
0.00313705
-0.00112206
0.0032089
-0.00109032
-0.000951839
0.000377523
0.000439421
0.000393651
0.000484557
0.000409666
0.000519219
0.000424606
0.000555412
0.000438035
0.000589196
0.000449846
0.000618175
0.000459787
0.000641434
0.000467679
0.000657017
0.000473515
0.000662426
0.000477487
0.000654953
0.000480038
0.000631659
0.000481867
0.0005894
0.000484015
0.000525076
0.000487787
0.000435431
0.000494796
0.00031711
0.000506952
0.000166564
0.000526214
-2.10384e-05
0.000555125
-0.000248152
0.000596661
-0.000518278
0.000653206
-0.000834208
0.000727268
-0.00119225
0.000820501
-0.00157943
0.000933734
-0.00197121
0.00106523
-0.00233744
0.00121258
-0.00264775
0.00137221
-0.0028797
0.00154023
-0.00302648
0.00171229
-0.0030842
0.00188444
-0.00306754
0.00205256
-0.00297677
0.00221377
-0.00284311
0.00236519
-0.00265785
0.0025059
-0.00246846
0.00263435
-0.0022444
0.00275168
-0.00205438
0.00285703
-0.00183092
0.00295321
-0.00167848
0.0030392
-0.00147345
0.00311895
-0.00137673
0.00319038
-0.00119348
0.00325881
-0.00115876
-0.00101417
0.000506639
0.000416343
0.000527652
0.000463544
0.000549816
0.000497055
0.000572117
0.00053311
0.000594027
0.000567286
0.000615252
0.000596949
0.000635256
0.00062143
0.00065357
0.000638703
0.000669904
0.000646092
0.000684176
0.000640681
0.000696567
0.000619268
0.00070755
0.000578417
0.000717955
0.00051467
0.000728935
0.000424452
0.00074198
0.000304064
0.000758895
0.000149649
0.000781743
-4.38866e-05
0.000812768
-0.000279177
0.000854681
-0.000560192
0.00090966
-0.000889187
0.000979718
-0.0012623
0.00106603
-0.00166574
0.001169
-0.00207418
0.00128722
-0.00245566
0.00141892
-0.00277945
0.00156153
-0.0030223
0.00171214
-0.00317709
0.00186716
-0.00323923
0.00202314
-0.00322352
0.00217631
-0.00312995
0.00232394
-0.00299074
0.0024633
-0.00279721
0.00259338
-0.00259855
0.00271275
-0.00236376
0.00282223
-0.00216387
0.00292114
-0.00192984
0.00301179
-0.00176913
0.00309353
-0.00155519
0.00316955
-0.00145275
0.00323832
-0.00126226
0.00330425
-0.00122468
-0.00107462
0.000642111
0.000393352
0.000664406
0.000441249
0.0006895
0.000471961
0.000716226
0.000506384
0.000743991
0.000539521
0.000772297
0.000568644
0.000800305
0.000593422
0.00082726
0.000611748
0.000852596
0.000620756
0.000875955
0.000617322
0.000897251
0.000597972
0.000916714
0.000558954
0.000934949
0.000496435
0.000952926
0.000406475
0.00097198
0.000285011
0.000993789
0.00012784
0.00102048
-7.05764e-05
0.001054
-0.000312698
0.00109675
-0.00060294
0.0011505
-0.000942941
0.00121673
-0.00132854
0.00129611
-0.00174512
0.00138871
-0.00216678
0.00149355
-0.0025605
0.00160963
-0.00289553
0.00173542
-0.0031481
0.001869
-0.00331068
0.0020075
-0.00337772
0.0021479
-0.00336391
0.00228677
-0.00326882
0.00242147
-0.00312544
0.00254946
-0.0029252
0.00266964
-0.00271873
0.00278065
-0.00247478
0.00288306
-0.00226627
0.0029763
-0.00202308
0.00306223
-0.00185505
0.0031405
-0.00163346
0.00321364
-0.00152589
0.00328055
-0.00132917
0.00334484
-0.00128898
-0.00113397
0.000790265
0.000375943
0.00080993
0.000421584
0.000834634
0.000447256
0.000862713
0.000478305
0.000893461
0.000508773
0.000926127
0.000535978
0.000959585
0.000559964
0.000992842
0.000578491
0.0010251
0.000588494
0.00105578
0.000586645
0.00108455
0.000569208
0.00111138
0.000532116
0.00113666
0.000471157
0.00116114
0.000381998
0.00118594
0.000260209
0.00121257
0.00010121
0.00124313
-0.000101131
0.00127921
-0.000348781
0.00132285
-0.000646577
0.00137537
-0.00099547
0.00143758
-0.00139074
0.00150966
-0.0018172
0.00159157
-0.00224869
0.00168287
-0.0026518
0.00178346
-0.00299613
0.00189288
-0.00325751
0.00201006
-0.00342785
0.00213276
-0.00350042
0.00225834
-0.0034895
0.00238368
-0.00339416
0.00250625
-0.00324801
0.00262366
-0.0030426
0.00273472
-0.00282979
0.00283816
-0.00257822
0.00293427
-0.00236238
0.00302261
-0.00211142
0.0031046
-0.00193704
0.00318013
-0.001709
0.00325119
-0.00159695
0.00331696
-0.00139494
0.00338045
-0.00135247
-0.00119295
0.000956747
0.000369514
0.000970549
0.000407781
0.0009922
0.000425605
0.00101895
0.000451554
0.0010499
0.000477829
0.001084
0.000501872
0.00111994
0.000524022
0.00115662
0.000541818
0.00119312
0.000551994
0.00122871
0.000551052
0.00126288
0.000535034
0.00129541
0.000499591
0.00132641
0.000440151
0.00135641
0.000351998
0.00138627
0.000230355
0.0014172
7.0274e-05
0.0014512
-0.000135127
0.00148945
-0.000387027
0.00153349
-0.000690621
0.00158417
-0.00104614
0.00164169
-0.00144827
0.0017058
-0.00188131
0.00177652
-0.00231942
0.00185417
-0.00272944
0.00193959
-0.00308155
0.00203327
-0.00335119
0.00213488
-0.00352946
0.00224269
-0.00360824
0.00235439
-0.0036012
0.0024671
-0.00350687
0.00257843
-0.00335933
0.0026861
-0.00315028
0.00278889
-0.00293259
0.00288557
-0.0026749
0.00297619
-0.002453
0.00306038
-0.00219561
0.00313918
-0.00201584
0.00321269
-0.00178251
0.0032824
-0.00166667
0.00334771
-0.00146024
0.00341113
-0.00141589
-0.00125224
0.00114516
0.000377155
0.00115218
0.000400768
0.00116977
0.000408014
0.0011934
0.000427924
0.00122204
0.000449183
0.00125454
0.000469378
0.00128961
0.000488945
0.00132629
0.000505139
0.00136373
0.000514559
0.00140117
0.000513607
0.00143802
0.000498183
0.00147388
0.000463736
0.00150864
0.000405393
0.00154253
0.000318103
0.00157615
0.000196738
0.00161021
3.62161e-05
0.00164661
-0.000171529
0.00168592
-0.000426338
0.00172919
-0.000733895
0.00177673
-0.00109369
0.0018283
-0.00149983
0.00188346
-0.00193647
0.00194245
-0.00237841
0.00200642
-0.00279341
0.00207718
-0.00315231
0.00215598
-0.00342999
0.00224306
-0.00361654
0.00233708
-0.00370226
0.00243597
-0.00370009
0.0025371
-0.00360801
0.00263819
-0.00346042
0.0027371
-0.00324919
0.00283253
-0.00302802
0.00292331
-0.00276568
0.00300926
-0.00253895
0.00309005
-0.0022764
0.00316641
-0.0020922
0.00323855
-0.00185465
0.00330761
-0.00173573
0.00337307
-0.00152571
0.0034371
-0.00147992
-0.00131246
0.00135686
0.000396117
0.00136078
0.000396848
0.00137573
0.000393067
0.00139529
0.000408368
0.00141919
0.000425281
0.00144669
0.000441873
0.00147712
0.000458521
0.00150991
0.000472352
0.00154445
0.000480011
0.00158013
0.000477927
0.00161633
0.000461992
0.0016525
0.000427565
0.00168833
0.000369559
0.00172372
0.000282713
0.00175902
0.000161437
0.00179424
1.00189e-06
0.00183131
-0.000208608
0.00186967
-0.000464692
0.00191011
-0.000774341
0.00195248
-0.00113605
0.00199627
-0.00154362
0.00204114
-0.00198134
0.00208782
-0.00242509
0.00213826
-0.00284385
0.00219509
-0.00320914
0.00226015
-0.00349505
0.00233399
-0.00369039
0.00241556
-0.00378382
0.00250295
-0.00378749
0.00259376
-0.00369881
0.00268577
-0.00355243
0.002777
-0.00334042
0.00286609
-0.00311711
0.00295188
-0.00285147
0.00303401
-0.00262107
0.00311216
-0.00235456
0.00318679
-0.00216682
0.0032582
-0.00192606
0.00332723
-0.00180476
0.00339342
-0.0015919
0.00345867
-0.00154517
-0.00137419
0.00159554
0.000413786
0.00160764