/*--------------------------------*- C++ -*----------------------------------*\
  =========                 |
  \\      /  F ield         | OpenFOAM: The Open Source CFD Toolbox
   \\    /   O peration     | Website:  https://openfoam.org
    \\  /    A nd           | Version:  7
     \\/     M anipulation  |
\*---------------------------------------------------------------------------*/
FoamFile
{
    version     2.0;
    format      ascii;
    class       surfaceScalarField;
    location    "10";
    object      phi;
}
// * * * * * * * * * * * * * * * * * * * * * * * * * * * * * * * * * * * * * //

dimensions      [0 3 -1 0 0 0 0];

internalField   nonuniform List<scalar> 
12578
(
-4.248e-06
4.23578e-06
1.22155e-08
-1.46156e-05
1.03329e-05
3.4655e-08
-2.95828e-05
1.49106e-05
5.6707e-08
-4.7678e-05
1.80171e-05
7.80657e-08
-6.75157e-05
1.97391e-05
9.85678e-08
-8.78618e-05
2.0228e-05
1.18225e-07
-0.000107717
1.97176e-05
1.37239e-07
-0.000126432
1.85595e-05
1.55984e-07
-0.000143769
1.71615e-05
1.74921e-07
1.60367e-05
1.94528e-07
-0.00016
-4.17134e-06
8.40712e-06
-1.43178e-05
2.04794e-05
-2.89078e-05
2.95006e-05
-4.64517e-05
3.5561e-05
-6.55389e-05
3.88262e-05
-8.49021e-05
3.95912e-05
-0.000103501
3.83162e-05
-0.000120642
3.57004e-05
-0.000136046
3.25657e-05
2.99371e-05
-0.000149946
-4.01916e-06
1.24263e-05
-1.37259e-05
3.01861e-05
-2.75654e-05
4.33401e-05
-4.4012e-05
5.20076e-05
-6.16051e-05
5.64193e-05
-7.90112e-05
5.69974e-05
-9.51076e-05
5.44126e-05
-0.000109111
4.97038e-05
-0.000120663
4.41175e-05
3.91896e-05
-0.000129915
-3.79371e-06
1.622e-05
-1.28474e-05
3.92399e-05
-2.55709e-05
5.60636e-05
-4.03851e-05
6.68218e-05
-5.57551e-05
7.17892e-05
-7.02486e-05
7.1491e-05
-8.26198e-05
6.67838e-05
-9.19487e-05
5.90327e-05
-9.77557e-05
4.99245e-05
4.15064e-05
-0.000100073
-3.49813e-06
1.97181e-05
-1.16927e-05
4.74344e-05
-2.2946e-05
6.73168e-05
-3.56083e-05
7.94841e-05
-4.80468e-05
8.42278e-05
-5.86992e-05
8.21433e-05
-6.61555e-05
7.42401e-05
-6.93107e-05
6.2188e-05
-6.75283e-05
4.81421e-05
3.46379e-05
-6.06598e-05
-3.13619e-06
2.28543e-05
-1.02744e-05
5.45726e-05
-1.97168e-05
7.67593e-05
-2.97269e-05
8.94942e-05
-3.8552e-05
9.30529e-05
-4.44691e-05
8.80605e-05
-4.58638e-05
7.56347e-05
-4.13884e-05
5.77126e-05
-3.02071e-05
3.69608e-05
1.67551e-05
-1.23243e-05
-2.71202e-06
2.55663e-05
-8.60621e-06
6.04668e-05
-1.59124e-05
8.40655e-05
-2.27917e-05
9.63735e-05
-2.73513e-05
9.76125e-05
-2.76797e-05
8.83889e-05
-2.19198e-05
6.98749e-05
-8.428e-06
4.42208e-05
1.40839e-05
1.44488e-05
-1.45876e-05
4.54267e-05
-2.22973e-06
2.77961e-05
-6.70225e-06
6.49393e-05
-1.15626e-05
8.89258e-05
-1.48552e-05
9.96661e-05
-1.45292e-05
9.72865e-05
-8.46013e-06
8.23198e-05
5.48833e-06
5.59264e-05
2.92927e-05
2.04164e-05
6.44463e-05
-2.07047e-05
-6.16451e-05
0.000111504
-1.69307e-06
2.94891e-05
-4.57559e-06
6.78218e-05
-6.6955e-06
9.10457e-05
-5.96758e-06
9.89382e-05
-1.66703e-07
9.14856e-05
1.30613e-05
6.90918e-05
3.61667e-05
3.2821e-05
7.15154e-05
-1.49323e-05
0.000121026
-7.02158e-05
-0.000126155
0.000185537
-1.10517e-06
3.05943e-05
-2.23746e-06
6.89541e-05
-1.33585e-06
9.01441e-05
3.82561e-06
9.37768e-05
1.56571e-05
7.96541e-05
3.67643e-05
4.79845e-05
6.99299e-05
-3.44609e-07
0.000117962
-6.29646e-05
0.000183288
-0.000135541
-0.000209972
0.000267105
-4.68481e-07
3.10628e-05
3.03948e-07
6.81817e-05
4.49589e-06
8.59522e-05
1.44872e-05
8.37855e-05
3.28826e-05
6.12588e-05
6.25446e-05
1.83225e-05
0.000106606
-4.44064e-05
0.000168357
-0.000124715
0.000250816
-0.000218
-0.000314863
0.000355707
2.16885e-07
3.08459e-05
3.04029e-06
6.53583e-05
1.07849e-05
7.82075e-05
2.59888e-05
6.85816e-05
5.14589e-05
3.57886e-05
9.0318e-05
-2.05365e-05
0.000146051
-0.000100139
0.000222449
-0.000201114
0.00032322
-0.000318771
-0.000442265
0.000450622
9.48171e-07
2.98977e-05
5.97027e-06
6.03362e-05
1.7521e-05
6.66568e-05
3.83099e-05
4.77927e-05
7.13515e-05
2.74708e-06
0.000120025
-6.92097e-05
0.000188152
-0.000168267
0.00028003
-0.000292992
0.000400132
-0.000438872
-0.000593717
0.000551583
1.72726e-06
2.81705e-05
9.09033e-06
5.29731e-05
2.46961e-05
5.1051e-05
5.14353e-05
2.10535e-05
9.25359e-05
-3.83535e-05
0.000151627
-0.000128301
0.000232839
-0.000249479
0.000340935
-0.000401088
0.000481197
-0.000579134
-0.000770346
0.000657826
2.55382e-06
1.23978e-05
4.31292e-05
3.23012e-05
3.11476e-05
6.53482e-05
-1.19935e-05
0.000114989
-8.79947e-05
0.000185098
-0.00019841
0.000280074
-0.000344455
0.000405066
-0.000526079
0.000566114
-0.000740182
-0.000972914
0.000768682
1.58872e-05
3.06694e-05
4.03212e-05
6.71365e-06
8.00212e-05
-5.16936e-05
0.000138676
-0.000146649
0.000220407
-0.00028014
0.000329843
-0.000453891
0.000472404
-0.000668641
0.000654702
-0.00092248
-0.00120171
0.000883503
1.95485e-05
1.54672e-05
4.87294e-05
-2.24673e-05
9.54049e-05
-9.8369e-05
0.000163524
-0.000214768
0.000257477
-0.000374094
0.000382112
-0.000578526
0.000542998
-0.000829528
0.000746947
-0.00112643
-0.00145651
0.00100175
2.33642e-05
5.74816e-05
-5.65847e-05
0.000111414
-0.000152301
0.000189399
-0.000292753
0.000296149
-0.000480843
0.000436784
-0.000719161
0.000616966
-0.00100971
0.000843033
-0.0013525
-0.00173679
0.00112331
6.65115e-05
-9.57883e-05
0.000127916
-0.000213706
0.000216077
-0.000380914
0.000336107
-0.000600873
0.000493613
-0.000876668
0.000694617
-0.00121071
0.000943941
-0.00160182
-0.00204236
0.00124951
7.57302e-05
0.000144723
-0.000282698
0.000243201
-0.000479392
0.000376755
-0.000734427
0.00055182
-0.00105173
0.000775925
-0.00143482
0.0010548
-0.0018807
-0.00237028
0.00138273
0.0001616
0.000270288
-0.000588081
0.000417104
-0.000881243
0.000609308
-0.00124394
0.000856578
-0.00168209
0.00117828
-0.0022024
-0.00283522
0.00164322
0.000296814
-0.000706593
0.000455983
-0.00104041
0.000663193
-0.00145115
0.000928023
-0.00194692
0.00126596
-0.00254034
-0.0032657
0.00169644
0.000322366
0.00049263
-0.00121068
0.000712141
-0.00167066
0.000988512
-0.00222329
0.00133045
-0.00288228
-0.00367675
0.0017415
0.000526727
0.000756146
-0.00190008
0.00104015
-0.0025073
0.0013821
-0.00322423
-0.0040726
0.00177795
0.00079553
0.0010846
-0.00279636
0.00142492
-0.00356456
-0.00445598
0.00180831
0.00112271
0.00146028
-0.00390213
-0.00482851
0.00183281
0.00148851
-0.00519058
0.00185058
0.0018605
0.00151022
0.00423757
0.0051926
0.00186145
0.00148929
0.00390373
0.00483039
0.0018515
0.00112329
0.00279752
0.00146101
0.003566
0.00445771
0.0018337
0.00079593
0.00190084
0.00108514
0.00250831
0.00142562
0.00322552
0.00407417
0.00180916
0.000526979
0.00121113
0.000756512
0.00167131
0.00104065
0.00222417
0.00138276
0.00288341
0.00367815
0.00177877
0.000322511
0.000706818
0.000492857
0.00104078
0.000712473
0.00145169
0.000988972
0.00194767
0.00133106
0.00254132
0.00326693
0.00174228
0.000296942
0.000588252
0.000456186
0.000881537
0.000663493
0.00124439
0.000928444
0.00168272
0.00126653
0.00220324
0.00283628
0.00169718
0.000161664
0.000282746
0.000270401
0.000479515
0.000417284
0.000734654
0.000609577
0.00105209
0.00085696
0.00143534
0.0011788
0.0018814
0.00237114
0.00164394
7.57571e-05
9.57728e-05
0.000144778
0.000213725
0.0002433
0.000380993
0.000376914
0.000601039
0.00055206
0.000876948
0.000776268
0.00121113
0.00105527
0.00160239
0.00204307
0.00138335
6.65344e-05
5.65546e-05
0.000127964
0.000152295
0.000216163
0.000292794
0.000336247
0.000480955
0.000493826
0.000719368
0.000694924
0.00101003
0.000944364
0.00135295
0.00173736
0.00125007
2.33711e-05
-1.55062e-05
5.75011e-05
2.24246e-05
0.000111455
9.83411e-05
0.000189474
0.000214775
0.000296272
0.000374158
0.000436972
0.000578668
0.000617239
0.000829767
0.000843412
0.00112678
0.00145696
0.00112381
1.95543e-05
-3.07131e-05
4.8746e-05
-6.76713e-06
9.54404e-05
5.16467e-05
0.000163589
0.000146627
0.000257585
0.000280162
0.000382278
0.000453975
0.000543241
0.000668804
0.000747286
0.000922732
0.00120205
0.0010022
3.42817e-06
-2.56372e-05
1.5892e-05
-4.3177e-05
4.03353e-05
-3.12104e-05
8.00518e-05
1.19301e-05
0.000138732
8.79464e-05
0.000220501
0.000198393
0.000329989
0.000344487
0.000472619
0.000526174
0.000655004
0.000740347
0.000973145
0.00088391
2.55442e-06
-2.81916e-05
1.24018e-05
-5.30244e-05
3.23132e-05
-5.11217e-05
6.53746e-05
-2.11313e-05
0.000115039
3.82823e-05
0.000185181
0.000128251
0.000280203
0.000249464
0.000405256
0.000401121
0.000566382
0.000579222
0.000770482
0.000769044
1.72775e-06
-2.99194e-05
9.09372e-06
-6.03903e-05
2.47064e-05
-6.67344e-05
5.14581e-05
-4.78831e-05
9.25788e-05
-2.83831e-06
0.000151699
6.91302e-05
0.000232953
0.000168211
0.000341103
0.000292971
0.000481434
0.00043889
0.000593769
0.000658148
9.48579e-07
-3.08679e-05
5.97316e-06
-6.54149e-05
1.75299e-05
-7.82911e-05
3.83298e-05
-6.8683e-05
7.13889e-05
-3.58975e-05
0.000120088
2.04309e-05
0.000188252
0.000100047
0.000280178
0.000201044
0.000400341
0.000318728
0.000442244
0.000551866
2.17236e-07
-3.10852e-05
3.0428e-06
-6.82405e-05
1.07926e-05
-8.60409e-05
2.60061e-05
-8.38964e-05
5.14917e-05
-6.13831e-05
9.03737e-05
-1.84511e-05
0.000146138
4.42824e-05
0.00022258
0.000124603
0.000323405
0.000217902
0.000314782
0.000450867
-4.6817e-07
-3.0617e-05
3.06134e-07
-6.90148e-05
4.50262e-06
-9.02374e-05
1.45023e-05
-9.38961e-05
3.29113e-05
-7.97921e-05
6.25935e-05
-4.81334e-05
0.000106684
1.92302e-07
0.000168472
6.28143e-05
0.00025098
0.000135395
0.000209825
0.000355936
-1.10489e-06
-2.95121e-05
-2.23552e-06
-6.78841e-05
-1.32995e-06
-9.1143e-05
3.83886e-06
-9.90649e-05
1.56822e-05
-9.16354e-05
3.68072e-05
-6.92583e-05
6.99976e-05
-3.29981e-05
0.000118063
1.47488e-05
0.000183431
7.0027e-05
0.000125958
0.000267299
-1.69281e-06
-2.78193e-05
-4.57387e-06
-6.50031e-05
-6.69032e-06
-8.90265e-05
-5.95599e-06
-9.97992e-05
-1.44644e-07
-9.74467e-05
1.30986e-05
-8.25016e-05
3.62255e-05
-5.61251e-05
7.16029e-05
-2.06286e-05
0.00012115
2.04796e-05
6.14041e-05
0.000185704
-2.22948e-06
-2.55898e-05
-6.70073e-06
-6.05318e-05
-1.15581e-05
-8.41692e-05
-1.48451e-05
-9.65122e-05
-1.45103e-05
-9.77816e-05
-8.42793e-06
-8.85839e-05
5.53901e-06
-7.0092e-05
2.93679e-05
-4.44574e-05
6.45523e-05
-1.47048e-05
1.43104e-05
0.000111646
-2.7118e-06
-2.2878e-05
-8.60487e-06
-5.46388e-05
-1.59085e-05
-7.68656e-05
-2.27831e-05
-8.96375e-05
-2.73351e-05
-9.32296e-05
-2.76523e-05
-8.82668e-05
-2.18768e-05
-7.58675e-05
-8.36452e-06
-5.79697e-05
1.41722e-05
-3.72416e-05
-1.70638e-05
4.55465e-05
-3.13599e-06
-1.9742e-05
-1.02732e-05
-4.75015e-05
-1.97134e-05
-6.74253e-05
-2.97196e-05
-7.96314e-05
-3.85384e-05
-8.44108e-05
-4.44462e-05
-8.2359e-05
-4.58279e-05
-7.44858e-05
-4.13354e-05
-6.24621e-05
-3.01326e-05
-4.84444e-05
-3.49695e-05
-1.22269e-05
-3.49795e-06
-1.62441e-05
-1.16917e-05
-3.93077e-05
-2.29432e-05
-5.61739e-05
-3.56023e-05
-6.69723e-05
-4.80358e-05
-7.19774e-05
-5.86806e-05
-7.17142e-05
-6.61264e-05
-6.704e-05
-6.92679e-05
-5.93207e-05
-6.74682e-05
-5.02442e-05
-4.1859e-05
-6.05787e-05
-3.79357e-06
-1.24505e-05
-1.28467e-05
-3.02546e-05
-2.55688e-05
-4.34517e-05
-4.03805e-05
-5.21605e-05
-5.57465e-05
-5.66114e-05
-7.02342e-05
-5.72265e-05
-8.25974e-05
-5.46768e-05
-9.19157e-05
-5.00023e-05
-9.77094e-05
-4.44505e-05
-3.95582e-05
-0.00010001
-4.01906e-06
-8.43147e-06
-1.37254e-05
-2.05483e-05
-2.75639e-05
-2.96132e-05
-4.40087e-05
-3.57157e-05
-6.1599e-05
-3.90211e-05
-7.9001e-05
-3.98244e-05
-9.50917e-05
-3.85861e-05
-0.000109088
-3.60064e-05
-0.00012063
-3.2908e-05
-3.03171e-05
-0.000129871
-4.17127e-06
-4.26019e-06
-1.43174e-05
-1.04021e-05
-2.89069e-05
-1.50238e-05
-4.64497e-05
-1.81729e-05
-6.55352e-05
-1.99357e-05
-8.4896e-05
-2.04636e-05
-0.000103491
-1.9991e-05
-0.000120628
-1.887e-05
-0.000136026
-1.75094e-05
-1.64234e-05
-0.00014992
-4.24798e-06
-1.46155e-05
-2.95825e-05
-4.76774e-05
-6.75144e-05
-8.78598e-05
-0.000107714
-0.000126428
-0.000143762
-0.000159991
-0.000164196
4.03805e-06
1.58278e-07
-0.000166364
2.00239e-06
1.65974e-07
-0.000165362
-1.17027e-06
1.67632e-07
-0.000160537
-4.99986e-06
1.75161e-07
-0.000151331
-9.38575e-06
1.79597e-07
-0.000137419
-1.40941e-05
1.81984e-07
-0.000118663
-1.89386e-05
1.82513e-07
-9.50719e-05
-2.37717e-05
1.80907e-07
-6.67717e-05
-2.84771e-05
1.76878e-07
-3.39709e-05
-3.29708e-05
1.70078e-07
3.06524e-06
-3.71964e-05
1.60188e-07
4.40386e-05
-4.11202e-05
1.46858e-07
8.86368e-05
-4.4728e-05
1.29803e-07
0.000136547
-4.80185e-05
1.08743e-07
0.000187463
-5.09999e-05
8.34481e-08
0.000241096
-5.36863e-05
5.37526e-08
0.000297172
-5.60956e-05
1.95749e-08
0.000355438
-5.82474e-05
-1.90591e-08
0.000415662
-6.01622e-05
-6.19903e-08
0.000477632
-6.18606e-05
-1.08898e-07
0.000541154
-6.33631e-05
-1.59276e-07
0.000606057
-6.46902e-05
-2.12404e-07
0.000672186
-6.58619e-05
-2.67327e-07
0.000739407
-6.68985e-05
-3.22835e-07
0.000807605
-6.78201e-05
-3.77455e-07
0.000876681
-6.8647e-05
-4.29456e-07
0.000946558
-6.94e-05
-4.76858e-07
0.00101717
-7.0099e-05
-5.1747e-07
0.00108849
-7.07666e-05
-5.48947e-07
0.00116048
-7.14186e-05
-5.6887e-07
0.00123314
-7.20856e-05
-5.7485e-07
0.00130646
-7.2761e-05
-5.64671e-07
0.00138052
-7.35208e-05
-5.36449e-07
0.00145526
-7.42496e-05
-4.88798e-07
0.00153093
-7.52452e-05
-4.21082e-07
0.00160718
-7.5917e-05
-3.33485e-07
0.00168493
-7.75254e-05
-2.27407e-07
0.00176259
-7.75568e-05
-1.05198e-07
0.0018436
-8.10399e-05
2.91485e-08
0.00192185
-7.84145e-05
1.71408e-07
0.00200891
-8.73742e-05
3.1355e-07
-7.95665e-05
4.66555e-07
-0.000153877
7.96841e-06
-0.000155745
3.8709e-06
-0.000154453
-2.46207e-06
-0.000149357
-1.00962e-05
-0.000139912
-1.88309e-05
-0.000125805
-2.82012e-05
-0.000106907
-3.78369e-05
-8.32316e-05
-4.74467e-05
-5.49076e-05
-5.68011e-05
-2.21426e-05
-6.57358e-05
1.48019e-05
-7.41408e-05
5.56325e-05
-8.19508e-05
0.000100043
-8.91388e-05
0.000147727
-9.57028e-05
0.000198387
-0.000101659
0.000251737
-0.000107036
0.000307511
-0.000111869
0.00036546
-0.000116197
0.000425357
-0.000120059
0.000486993
-0.000123496
0.000550178
-0.000126548
0.000614743
-0.000129255
0.000680536
-0.000131655
0.000747425
-0.000133787
0.000815295
-0.00013569
0.00088405
-0.000137402
0.000953614
-0.000138963
0.00102393
-0.00014041
0.00109494
-0.000141786
0.00116665
-0.00014312
0.00123903
-0.000144471
0.00131209
-0.000145822
0.0013859
-0.000147325
0.00146039
-0.000148747
0.00153583
-0.000150683
0.00161187
-0.000151952
0.00168942
-0.000155078
0.00176689
-0.000155031
0.00184773
-0.000161881
0.00192582
-0.000156505
0.00201273
-0.000174281
-0.000158587
-0.000133325
1.13784e-05
-0.000134601
5.14697e-06
-0.000132739
-4.32438e-06
-0.000127105
-1.573e-05
-0.000117188
-2.87481e-05
-0.000102697
-4.26923e-05
-8.35201e-05
-5.70138e-05
-5.96825e-05
-7.12842e-05
-3.13162e-05
-8.51674e-05
1.37377e-06
-9.84258e-05
3.81301e-05
-0.000110897
7.86727e-05
-0.000122493
0.000122707
-0.000133173
0.00016994
-0.000142936
0.000220086
-0.000151805
0.000272872
-0.000159823
0.000328045
-0.000167041
0.000385364
-0.000173516
0.00044461
-0.000179306
0.000505583
-0.000184469
0.000568098
-0.000189064
0.000631993
-0.000193149
0.000697119
-0.000196781
0.000763347
-0.000200016
0.000830568
-0.00020291
0.000898686
-0.000205521
0.000967627
-0.000207905
0.00103733
-0.000210117
0.00110777
-0.000212219
0.0011789
-0.000214254
0.00125074
-0.000216309
0.00132327
-0.000218358
0.00139658
-0.000220628
0.0014706
-0.000222766
0.00154558
-0.00022567
0.00162119
-0.000227559
0.00169835
-0.000232234
0.00177545
-0.000232134
0.00185596
-0.000242385
0.00193374
-0.000234293
0.00202035
-0.000260884
-0.000237453
-0.000102733
1.40391e-05
-0.000103143
5.55679e-06
-0.000100442
-7.02561e-06
-9.40194e-05
-2.21525e-05
-8.34106e-05
-3.93569e-05
-6.83595e-05
-5.77434e-05
-4.87813e-05
-7.65919e-05
-2.47155e-05
-9.53501e-05
3.69987e-06
-0.000113583
3.62608e-05
-0.000130987
7.27261e-05
-0.000147363
0.000112829
-0.000162596
0.000156294
-0.000176638
0.000202847
-0.000189489
0.000252224
-0.000201182
0.000304169
-0.000211769
0.000358444
-0.000221317
0.000414825
-0.000229897
0.000473105
-0.000237586
0.000533094
-0.000244457
0.000594617
-0.000250588
0.000657518
-0.00025605
0.000721657
-0.00026092
0.00078691
-0.000265269
0.00085317
-0.000269171
0.000920348
-0.000272699
0.000988371
-0.000275928
0.00105718
-0.00027893
0.00112675
-0.000281786
0.00119705
-0.000284552
0.00126808
-0.000287343
0.00133985
-0.000290122
0.00141241
-0.000293194
0.00148573
-0.000296082
0.00156005
-0.000299994
0.00163503
-0.00030254
0.00171161
-0.000308811
0.00178817
-0.000308694
0.00186818
-0.000322398
0.00194553
-0.000311641
0.00203169
-0.000347045
-0.000316094
-6.23917e-05
1.57709e-05
-6.16677e-05
4.83284e-06
-5.78844e-05
-1.08089e-05
-5.04455e-05
-2.95914e-05
-3.89454e-05
-5.08569e-05
-2.31791e-05
-7.35097e-05
-3.09401e-06
-9.6677e-05
2.12409e-05
-0.000119685
4.969e-05
-0.000142032
8.20565e-05
-0.000163353
0.000118112
-0.000183418
0.000157612
-0.000202096
0.000200308
-0.000219334
0.000245953
-0.000235133
0.000294305
-0.000249534
0.000345135
-0.000262599
0.000398224
-0.000274406
0.000453369
-0.000285042
0.000510378
-0.000294594
0.000569074
-0.000303154
0.000629296
-0.00031081
0.000690897
-0.000317651
0.000753745
-0.000323767
0.000817723
-0.000329246
0.000882729
-0.000334177
0.000948681
-0.00033865
0.00101551
-0.000342756
0.00108316
-0.000346582
0.0011516
-0.000350229
0.00122081
-0.000353764
0.0012908
-0.000357333
0.00136157
-0.000360885
0.00143318
-0.000364804
0.00150558
-0.000368489
0.00157905
-0.000373461
0.00165322
-0.000376712
0.00172905
-0.000384639
0.00180491
-0.000384556
0.0018843
-0.000401781
0.00196108
-0.000388427
0.00204668
-0.00043264
-0.000394453
-1.24664e-05
1.59131e-05
-1.05146e-05
2.88099e-06
-5.47381e-06
-1.58497e-05
3.18886e-06
-3.82541e-05
1.57369e-05
-6.3405e-05
3.23416e-05
-9.01144e-05
5.30006e-05
-0.000117336
7.76278e-05
-0.000144312
0.000106074
-0.000170478
0.000138155
-0.000195434
0.000173664
-0.000218927
0.000212387
-0.000240819
0.000254107
-0.000261054
0.000298608
-0.000279635
0.000345682
-0.000296608
0.000395128
-0.000312045
0.000446753
-0.000326031
0.000500375
-0.000338664
0.000555823
-0.000350042
0.000612936
-0.000360267
0.000671567
-0.000369441
0.000731581
-0.000377665
0.000792854
-0.000385041
0.00085528
-0.000391672
0.000918763
-0.000397661
0.000983226
-0.000403112
0.0010486
-0.000408133
0.00111485
-0.000412826
0.00118193
-0.00041731
0.00124983
-0.000421664
0.00131856
-0.000426062
0.00138811
-0.00043044
0.00145857
-0.000435265
0.00152989
-0.000439804
0.00160233
-0.0004459
0.00167553
-0.000449915
0.00175047
-0.000459573
0.0018255
-0.000459585
0.00190413
-0.000480413
0.00198025
-0.000464548
0.00206517
-0.000517565
-0.000472486
4.62318e-05
1.51079e-05
4.97701e-05
-6.57296e-07
5.62538e-05
-2.23334e-05
6.62999e-05
-4.83002e-05
8.00598e-05
-7.71649e-05
9.76007e-05
-0.000107655
0.000118875
-0.00013861
0.000143772
-0.000169209
0.000172142
-0.000198848
0.000203818
-0.000227109
0.000238622
-0.000253732
0.000276377
-0.000278574
0.000316903
-0.00030158
0.000360026
-0.000322757
0.000405571
-0.000342154
0.000453372
-0.000359845
0.000503265
-0.000375924
0.000555094
-0.000390492
0.000608708
-0.000403657
0.000663968
-0.000415527
0.00072074
-0.000426213
0.000778904
-0.000435828
0.000838347
-0.000444484
0.00089897
-0.000452295
0.000960687
-0.000459378
0.00102343
-0.000465851
0.00108713
-0.000471834
0.00115175
-0.000477446
0.00121726
-0.000482824
0.00128365
-0.000488054
0.00135093
-0.000493344
0.0014191
-0.000498612
0.00148825
-0.000504411
0.00155832
-0.00050987
0.00162958
-0.000517168
0.00170169
-0.000522017
0.00177561
-0.000533495
0.0018497
-0.000533673
0.00192748
-0.000558201
0.00200286
-0.000539924
0.00208703
-0.000601739
-0.000550165
0.000113799
1.28125e-05
0.000118466
-5.32424e-06
0.000126749
-3.06165e-05
0.00013833
-5.98813e-05
0.000153389
-9.22237e-05
0.00017191
-0.000126176
0.000193788
-0.000160488
0.00021889
-0.000194311
0.000247071
-0.00022703
0.000278189
-0.000258227
0.000312104
-0.000287647
0.000348681
-0.000315151
0.000387787
-0.000340687
0.000429291
-0.000364261
0.000473061
-0.000385923
0.000518965
-0.000405749
0.000566873
-0.000423832
0.000616656
-0.000440275
0.000668188
-0.000455189
0.000721348
-0.000468687
0.000776022
-0.000480887
0.000832101
-0.000491907
0.000889486
-0.000501869
0.000948088
-0.000510897
0.00100783
-0.000519119
0.00106864
-0.000526663
0.00113047
-0.000533667
0.00119329
-0.000540259
0.00125706
-0.000546594
0.00132177
-0.000552771
0.00138745
-0.000559023
0.0014541
-0.000565256
0.00152179
-0.000572107
0.00159049
-0.000578565
0.00166047
-0.000587152
0.00173137
-0.000592915
0.00180419
-0.000606314
0.00187726
-0.000606741
0.00195413
-0.000635077
0.00202871
-0.000614505
0.00211209
-0.000685111
-0.000627484
0.000189164
9.185e-06
0.000195497
-1.1657e-05
0.000205437
-4.05562e-05
0.000218623
-7.3068e-05
0.00023502
-0.000108621
0.000254507
-0.000145663
0.000276919
-0.0001829
0.000302105
-0.000219497
0.000329936
-0.00025486
0.000360303
-0.000288594
0.000393114
-0.000320458
0.000428285
-0.000350322
0.000465735
-0.000378136
0.00050538
-0.000403906
0.000547133
-0.000427676
0.0005909
-0.000449517
0.000636587
-0.000469519
0.000684093
-0.000487781
0.000733318
-0.000504414
0.000784162
-0.000519531
0.000836527
-0.000533252
0.00089032
-0.0005457
0.000945455
-0.000557004
0.00100185
-0.000567294
0.00105944
-0.000576707
0.00111816
-0.000585384
0.00117797
-0.000593473
0.00123882
-0.000601116
0.00130071
-0.000608485
0.00136363
-0.000615685
0.00142759
-0.000622983
0.0014926
-0.000630262
0.00155874
-0.000638255
0.00162598
-0.0006458
0.0016946
-0.000655774
0.00176423
-0.000662543
0.00183589
-0.000677973
0.00190789
-0.000678744
0.00198382
-0.000711005
0.00205758
-0.000688271
0.00214013
-0.000767658
-0.000704455
0.000271992
4.2975e-06
0.000279992
-1.9657e-05
0.000291681
-5.22456e-05
0.000306489
-8.78758e-05
0.000324196
-0.000126327
0.000344563
-0.00016603
0.000367367
-0.000205705
0.000392453
-0.000244583
0.000419717
-0.000282124
0.000449098
-0.000317975
0.000480559
-0.00035192
0.000514077
-0.00038384
0.000549625
-0.000413684
0.000587171
-0.000441452
0.000626673
-0.000467179
0.000668081
-0.000490925
0.000711332
-0.000512769
0.000756356
-0.000532805
0.000803078
-0.000551136
0.000851419
-0.000567872
0.0009013
-0.000583132
0.000952641
-0.000597042
0.00100537
-0.000609731
0.00105941
-0.000621338
0.00111471
-0.000632007
0.00117121
-0.000641886
0.00122888
-0.000651137
0.00128767
-0.000659911
0.00134758
-0.000668397
0.00140861
-0.000676709
0.00147077
-0.000685143
0.00153407
-0.000693563
0.00159861
-0.000702796
0.00166433
-0.000711524
0.00173155
-0.000722994
0.00179988
-0.000730867
0.00187036
-0.000748453
0.00194128
-0.000749669
0.00201626
-0.000785984
0.00208922
-0.000761232
0.00217096
-0.000849391
-0.000781115
0.000361745
-1.74033e-06
0.000371389
-2.93016e-05
0.000384821
-6.56774e-05
0.000401207
-0.000104261
0.000420118
-0.000145238
0.000441193
-0.000187105
0.000464165
-0.000228677
0.00048889
-0.000269307
0.000515309
-0.000308544
0.000543423
-0.000346088
0.00057326
-0.000381757
0.000604859
-0.000415438
0.000638253
-0.000447078
0.000673464
-0.000476663
0.000710497
-0.000504211
0.000749339
-0.000529767
0.000789963
-0.000553394
0.000832328
-0.000575171
0.000876384
-0.000595191
0.000922071
-0.000613559
0.000969328
-0.000630389
0.00101809
-0.000645803
0.00106829
-0.000659935
0.00111988
-0.000672924
0.00117279
-0.000684921
0.00122699
-0.000696084
0.00128244
-0.000706581
0.0013391
-0.000716576
0.00139698
-0.000726275
0.00145606
-0.000735794
0.00151639
-0.000745466
0.00157795
-0.000755127
0.00164086
-0.000765709
0.00170507
-0.000775726
0.00177088
-0.00078881
0.00183791
-0.000797896
0.00190723
-0.000817768
0.0019771
-0.000819542
0.00205116
-0.000860044
0.00212336
-0.000833436
0.00220433
-0.000930355
-0.000857526
0.000457996
-9.11382e-06
0.000469098
-4.04034e-05
0.000484204
-8.07834e-05
0.000502043
-0.0001221
0.000521954
-0.000165149
0.00054346
-0.000208611
0.000566277
-0.000251494
0.000590299
-0.000293329
0.000615532
-0.000333777
0.000642052
-0.000372608
0.00066996
-0.000409665
0.000699362
-0.00044484
0.000730351
-0.000478067
0.000763
-0.000509312
0.000797359
-0.00053857
0.000833453
-0.000565861
0.000871288
-0.000591228
0.00091085
-0.000614733
0.000952111
-0.000636452
0.000995031
-0.00065648
0.00103956
-0.000674922
0.00108566
-0.000691899
0.00113327
-0.00070754
0.00118233
-0.000721988
0.00123281
-0.000735399
0.00128466
-0.000747934
0.00133785
-0.000759773
0.00139236
-0.000771089
0.00144819
-0.000782102
0.00150533
-0.000792935
0.00156382
-0.000803954
0.00162366
-0.000814968
0.00168496
-0.000827014
0.00174767
-0.000838434
0.00181212
-0.000853259
0.0018779
-0.000863675
0.0019461
-0.000885972
0.00201499
-0.000888427
0.0020882
-0.000933254
0.00215973
-0.000904963
0.00224
-0.00101063
-0.000933774
0.000559863
-1.73942e-05
0.000572504
-5.30437e-05
0.000589176
-9.74553e-05
0.000608249
-0.000141173
0.000628834
-0.000185734
0.000650369
-0.000230147
0.000672597
-0.000273723
0.000695486
-0.000316218
0.00071913
-0.000357422
0.000743689
-0.000397167
0.000769343
-0.000435318
0.000796262
-0.00047176
0.000824599
-0.000506404
0.000854473
-0.000539187
0.000885977
-0.000570073
0.000919169
-0.000599054
0.000954085
-0.000626144
0.000990734
-0.000651382
0.00102911
-0.000674828
0.00106919
-0.000696561
0.00111094
-0.000716675
0.00115433
-0.000735284
0.0011993
-0.000752515
0.00124583
-0.000768511
0.00129386
-0.000783429
0.00134336
-0.000797437
0.00139431
-0.000810724
0.00144669
-0.000823469
0.0015005
-0.000835908
0.00155573
-0.000848168
0.00161243
-0.000860652
0.0016706
-0.000873137
0.00173035
-0.000886772
0.00179164
-0.000899718
0.0018548
-0.000916417
0.00191941
-0.000928288
0.00198659
-0.000953157
0.00205459
-0.000956422
0.00212705
-0.00100572
0.00219802
-0.00097593
0.00227772
-0.00109033
-0.00100997
0.000666901
-2.64696e-05
0.000681049
-6.71919e-05
0.000699113
-0.000115519
0.000719069
-0.000161129
0.000739843
-0.000206508
0.000760858
-0.000251161
0.000781944
-0.000294809
0.000803183
-0.000337457
0.000824778
-0.000379016
0.000846978
-0.000419367
0.000870038
-0.000458378
0.000894193
-0.000495915
0.000919644
-0.000531855
0.000946554
-0.000566097
0.000975048
-0.000598568
0.00100522
-0.000629223
0.00103712
-0.000658047
0.00107079
-0.00068505
0.00110623
-0.000710271
0.00114344
-0.00073377
0.0011824
-0.000755631
0.00122307
-0.000775958
0.00126543
-0.000794872
0.00130943
-0.000812516
0.00135505
-0.000829047
0.00140225
-0.000844639
0.00145101
-0.000859486
0.00150132
-0.000873777
0.00155318
-0.000887763
0.00160658
-0.000901573
0.00166158
-0.000915646
0.00171817
-0.000929728
0.00177648
-0.000945084
0.00183645
-0.000959685
0.00189843
-0.0009784
0.001962
-0.000991857
0.00202829
-0.00101945
0.00209553
-0.00102367
0.00216739
-0.00107757
0.00223795
-0.00104649
0.00231722
-0.00116961
-0.00108625
0.000778544
-3.63314e-05
0.000794269
-8.29177e-05
0.000813443
-0.000134692
0.000833731
-0.000181417
0.000854006
-0.000226783
0.000873779
-0.000270934
0.000893047
-0.000314077
0.000912042
-0.000356453
0.000931083
-0.000398057
0.000950508
-0.000438792
0.000970639
-0.000478509
0.000991762
-0.000517037
0.00101412
-0.00055421
0.0010379
-0.000589882
0.00106327
-0.000623936
0.00109033
-0.000656286
0.00111917
-0.000686884
0.00114983
-0.000715709
0.00118233
-0.000742774
0.00121669
-0.000768123
0.00125288
-0.000791822
0.00129088
-0.000813965
0.00133068
-0.000834668
0.00137223
-0.00085407
0.00141552
-0.000872331
0.0014605
-0.000889625
0.00150717
-0.000906156
0.00155551
-0.000922117
0.00160553
-0.000937777
0.00165722
-0.000953266
0.00171064
-0.000969062
0.00176578
-0.000984873
0.00182279
-0.00100209
0.00188158
-0.00101848
0.00194254
-0.00103936
0.00200523
-0.00105454
0.0020708
-0.00108502
0.00213746
-0.00109033
0.00220887
-0.00114899
0.00227921
-0.00111682
0.00235825
-0.00124865
-0.00116278
0.000894376
-4.72039e-05
0.000911851
-0.000100392
0.000931644
-0.000154485
0.000951419
-0.000201193
0.000970242
-0.000245606
0.000987869
-0.000288562
0.00100453
-0.00033074
0.00102063
-0.000372551
0.00103659
-0.00041402
0.00105283
-0.000455031
0.00106972
-0.000495394
0.00108757
-0.000534889
0.00110666
-0.000573297
0.0011272
-0.000610423
0.00114936
-0.000646101
0.00117328
-0.000680205
0.00119904
-0.000712647
0.00122671
-0.000743375
0.00125631
-0.000772378
0.00128787
-0.000799676
0.00132137
-0.00082532
0.00135679
-0.000849392
0.00139413
-0.000872003
0.00143334
-0.000893285
0.00147441
-0.0009134
0.00151731
-0.000932524
0.00156202
-0.000950869
0.00160854
-0.000968633
0.00165687
-0.000986102
0.001707
-0.00100341
0.00175901
-0.00102106
0.00181288
-0.00103874
0.00186875
-0.00105796
0.00192656
-0.00107629
0.00198668
-0.00109948
0.00204867
-0.00111653
0.00211371
-0.00115006
0.00218
-0.00115662
0.00225118
-0.00122017
0.0023215
-0.00118714
0.00240052
-0.00132767
-0.00123974
0.00101427
-5.97246e-05
0.00103363
-0.000119755
0.00105316
-0.000174019
0.00107117
-0.000219197
0.00108729
-0.00026173
0.0011017
-0.000302968
0.00111489
-0.000343931
0.00112742
-0.000385079
0.00113979
-0.000426394
0.00115246
-0.000467701
0.00116582
-0.000508755
0.00118021
-0.000549276
0.0011959
-0.00058899
0.00121313
-0.000627647
0.00123206
-0.000665037
0.00125285
-0.000700988
0.00127557
-0.000735376
0.00130031
-0.000768116
0.00132711
-0.000799169
0.00135596
-0.000828534
0.00138689
-0.000856245
0.00141987
-0.000882373
0.00145489
-0.000907019
0.00149191
-0.000930313
0.00153093
-0.000952415
0.00157191
-0.000973505
0.00161484
-0.000993801
0.00165971
-0.00101351
0.00170654
-0.00103292
0.00175531
-0.00105218
0.0018061
-0.00107185
0.0018589
-0.00109154
0.00191385
-0.00111292
0.00197088
-0.00113332
0.00203039
-0.00115899
0.00209192
-0.00117806
0.00215666
-0.00121479
0.00222281
-0.00122277
0.00229399
-0.00129135
0.00236454
-0.00125769
0.00244378
-0.00140691
-0.00131733
0.00113836
-7.47805e-05
0.00115951
-0.000140903
0.00117734
-0.000191846
0.00119178
-0.000233643
0.00120365
-0.000273594
0.00121363
-0.000312952
0.00122246
-0.00035276
0.00123077
-0.000393387
0.00123909
-0.000434712
0.00124787
-0.000476479
0.00125748
-0.000518375
0.00126827
-0.000560064
0.0012805
-0.000601218
0.00129439
-0.00064154
0.00131013
-0.000680771
0.00132784
-0.000718699
0.00134763
-0.000755162
0.00136955
-0.000790046
0.00139367
-0.000823282
0.00141998
-0.000854848
0.0014485
-0.000884763
0.00147921
-0.000913083
0.00151209
-0.000939903
0.00154713
-0.000965348
0.00158429
-0.000989578
0.00162356
-0.00101278
0.00166493
-0.00103516
0.00170838