/*--------------------------------*- C++ -*----------------------------------*\
  =========                 |
  \\      /  F ield         | OpenFOAM: The Open Source CFD Toolbox
   \\    /   O peration     | Website:  https://openfoam.org
    \\  /    A nd           | Version:  7
     \\/     M anipulation  |
\*---------------------------------------------------------------------------*/
FoamFile
{
    version     2.0;
    format      ascii;
    class       volVectorField;
    location    "5";
    object      U;
}
// * * * * * * * * * * * * * * * * * * * * * * * * * * * * * * * * * * * * * //

dimensions      [0 1 -1 0 0 0 0];

internalField   nonuniform List<vector> 
6386
(
(-0.00369161 0.00601415 6.22707e-20)
(-0.00306895 0.00496031 1.41929e-19)
(-0.00218735 0.00375243 6.69367e-20)
(-0.00101954 0.00240884 -3.11531e-19)
(0.00804503 0.000800509 2.09436e-19)
(0.000459338 0.00095166 1.00356e-20)
(0.0131698 -0.00283764 -2.13323e-19)
(0.00227107 -0.000592967 -2.43756e-20)
(0.0191918 -0.006632 2.50611e-19)
(0.0501101 -0.012837 -2.57945e-20)
(0.00443375 -0.00219499 -1.5148e-19)
(0.0261478 -0.0105012 2.31578e-19)
(0.0626149 -0.0178594 -1.38472e-19)
(0.111538 -0.0247048 1.9794e-19)
(0.00696159 -0.00382082 2.84034e-19)
(0.0340633 -0.0143548 -3.26758e-19)
(0.0765475 -0.0227488 -7.74698e-20)
(0.131945 -0.0297876 -3.72341e-19)
(0.00986486 -0.00543405 -5.80953e-20)
(0.0429529 -0.0180952 9.5226e-21)
(0.0919061 -0.0273563 -1.87164e-19)
(0.154088 -0.0343805 -6.2697e-20)
(0.228269 -0.038641 2.81909e-19)
(0.01315 -0.00699618 3.23892e-19)
(0.0528199 -0.0216193 -1.87616e-19)
(0.108672 -0.0315257 1.94188e-19)
(0.177907 -0.0382814 7.10751e-20)
(0.259126 -0.0415534 -1.07337e-19)
(0.350814 -0.0411735 -5.15521e-20)
(0.0168197 -0.00846743 -1.73353e-19)
(0.0636564 -0.0248213 4.46662e-19)
(0.126807 -0.0350981 -1.30101e-19)
(0.203318 -0.0412885 3.4011e-20)
(0.291593 -0.0432709 6.42676e-19)
(0.389842 -0.0411083 -2.90887e-19)
(0.495976 -0.0352316 -2.7243e-19)
(0.0208726 -0.00980733 7.75514e-20)
(0.0754428 -0.0275947 4.23467e-20)
(0.146259 -0.0379161 5.45674e-20)
(0.230215 -0.0432064 -9.48558e-20)
(0.325502 -0.0435728 -1.14778e-19)
(0.430025 -0.0393222 -4.54446e-19)
(0.541293 -0.0311504 6.30351e-20)
(0.6565 -0.0199815 8.04732e-20)
(0.0253034 -0.0109752 -6.50468e-20)
(0.0881469 -0.0298338 -5.59729e-19)
(0.166951 -0.0398271 3.96456e-19)
(0.25847 -0.0438521 1.86966e-19)
(0.36066 -0.0422628 -3.03572e-19)
(0.471105 -0.0356242 -4.68762e-20)
(0.586912 -0.0249009 3.70757e-19)
(0.70479 -0.0112643 6.38161e-19)
(0.821285 0.00413762 1.80339e-20)
(0.0301023 -0.0119307 -9.47892e-20)
(0.101723 -0.0314358 2.00342e-19)
(0.188788 -0.0406867 -5.09211e-19)
(0.287924 -0.043059 -1.88845e-19)
(0.396841 -0.0391728 2.05583e-19)
(0.512796 -0.0298681 1.16538e-19)
(0.632505 -0.0163877 -4.25098e-19)
(0.752246 -0.000151762 -3.10624e-19)
(0.868118 0.0174652 -4.07172e-19)
(0.973352 0.0284466 2.4986e-19)
(0.0352543 -0.0126338 3.59403e-20)
(0.116113 -0.0323019 3.58509e-19)
(0.211655 -0.0403609 1.87695e-19)
(0.318396 -0.0406801 2.0979e-19)
(0.433795 -0.0341662 -7.64255e-20)
(0.554784 -0.0219529 3.76474e-19)
(0.677713 -0.00557368 -3.38409e-20)
(0.798502 0.0132965 2.26784e-19)
(0.912932 0.0330521 4.53881e-19)
(1.01469 0.0463646 -2.13011e-19)
(0.0407394 -0.0130456 -1.01525e-19)
(0.131241 -0.0323391 -2.17899e-19)
(0.235414 -0.0387289 -1.44045e-19)
(0.349677 -0.0365907 1.45688e-19)
(0.471243 -0.0271396 3.05241e-20)
(0.596731 -0.0118219 -3.20516e-19)
(0.722164 0.007526 7.66677e-20)
(0.843185 0.0289695 9.97823e-20)
(0.955389 0.0506748 6.51601e-20)
(1.05301 0.0660065 7.93794e-20)
(0.0465313 -0.0131284 6.91981e-20)
(0.14702 -0.0314609 1.92616e-19)
(0.259905 -0.0356843 1.98964e-19)
(0.381536 -0.0306904 -2.56165e-19)
(0.508884 -0.0180235 -1.90186e-19)
(0.63828 0.000539656 1.20047e-19)
(0.765476 0.0228502 2.04475e-19)
(0.885923 0.0467153 -5.34939e-20)
(0.995171 0.0700875 -2.33172e-19)
(1.08805 0.0870214 -6.5449e-20)
(0.052598 -0.0128467 4.38856e-20)
(0.163346 -0.0295895 -1.16305e-20)
(0.28495 -0.031138 -8.93347e-20)
(0.413718 -0.0229049 -1.33316e-20)
(0.546399 -0.00678315 -1.48639e-20)
(0.679068 0.0151056 1.50415e-19)
(0.807269 0.0402968 -2.5254e-19)
(0.926365 0.0663495 -1.65173e-19)
(1.03199 0.091031 -5.82212e-21)
(1.11965 0.109081 1.18691e-19)
(0.0589007 -0.0121675 1.98149e-19)
(0.1801 -0.026657 -4.25784e-20)
(0.31035 -0.0250193 -6.9496e-20)
(0.445953 -0.0131873 -9.85192e-21)
(0.583457 0.00658154 -3.45576e-20)
(0.718728 0.0318118 -1.64033e-19)
(0.847177 0.059728 1.08389e-19)
(0.964186 0.0876622 -1.5719e-19)
(1.06561 0.113239 1.06558e-19)
(1.14765 0.13188 3.05136e-19)
(0.0653947 -0.0110612 -8.61479e-20)
(0.19715 -0.0226072 -1.89458e-19)
(0.335893 -0.017278 -2.42196e-20)
(0.477955 -0.00151916 2.47437e-19)
(0.619718 0.0220364 8.31875e-20)
(0.756897 0.0505581 1.88688e-19)
(0.884855 0.0809749 3.2742e-19)
(0.9991 0.110425 7.6427e-20)
(1.09583 0.136446 8.24678e-20)
(1.172 0.15514 -2.25376e-19)
(0.0720287 -0.00950255 6.91815e-21)
(0.214351 -0.0173971 1.28853e-19)
(0.361351 -0.00788614 1.38908e-19)
(0.509428 0.0120883 -1.57803e-19)
(0.654845 0.0395136 2.08129e-19)
(0.793228 0.0712116 -1.91047e-19)
(0.919985 0.103842 -4.45333e-20)
(1.03086 0.134396 -7.11818e-20)
(1.12251 0.160388 -7.84513e-20)
(1.19266 0.178607 -1.1864e-19)
(0.0787459 -0.00747121 -8.41092e-21)
(0.231548 -0.0109988 -1.2662e-20)
(0.386484 0.00316066 -9.64075e-21)
(0.540073 0.0275942 -8.38564e-21)
(0.688504 0.0589128 4.14842e-20)
(0.827391 0.0936095 5.01782e-20)
(0.952283 0.128114 -5.60147e-20)
(1.05927 0.159324 -4.28207e-20)
(1.14556 0.18481 -4.917e-20)
(1.20965 0.202051 1.55312e-19)
(0.0854843 -0.00495275 -1.24712e-20)
(0.248574 -0.00340058 3.29736e-20)
(0.411048 0.0158422 5.48287e-20)
(0.569589 0.0449273 -1.80275e-20)
(0.720372 0.0801029 -1.37697e-19)
(0.859082 0.117562 -1.14867e-19)
(0.981505 0.153556 -5.15494e-21)
(1.08417 0.184957 9.83917e-20)
(1.16493 0.209465 -1.61341e-20)
(1.22305 0.225266 -4.30059e-20)
(0.0921774 -0.00193937 -3.06803e-20)
(0.265258 0.00539162 1.74643e-20)
(0.434793 0.0301127 -2.00693e-20)
(0.597681 0.0639872 4.67744e-21)
(0.750146 0.102924 1.70763e-20)
(0.888028 0.142858 2.51323e-20)
(1.00744 0.179924 -4.92583e-21)
(1.10546 0.211041 -5.88006e-20)
(1.18062 0.234123 3.60555e-21)
(1.23295 0.248069 2.07865e-20)
(0.0987551 0.00156943 -9.76906e-21)
(0.281424 0.0153532 -1.24061e-22)
(0.457472 0.0459005 2.89327e-21)
(0.624065 0.0846445 -2.92633e-21)
(0.777543 0.127189 2.18137e-20)
(0.913986 0.169266 7.78321e-21)
(1.02994 0.206962 4.63167e-21)
(1.12308 0.237326 -1.98129e-21)
(1.19267 0.258562 -8.81224e-21)
(1.23948 0.270296 -1.95437e-20)
(0.105145 0.00556633 -4.48349e-21)
(0.296894 0.0264403 -1.4674e-20)
(0.478841 0.0631084 1.17597e-20)
(0.648468 0.106743 -1.0921e-21)
(0.802305 0.152689 1.27929e-20)
(0.936755 0.196538 1.24454e-20)
(1.04887 0.234411 1.06864e-20)
(1.137 0.263569 -8.93545e-21)
(1.20115 0.282579 -9.56848e-21)
(1.24279 0.2918 -1.5833e-20)
(0.111274 0.0100358 -1.51901e-20)
(0.311492 0.0385896 -1.64421e-20)
(0.498667 0.081614 -1.12325e-20)
(0.670642 0.130101 -1.17152e-20)
(0.824206 0.179194 2.59207e-20)
(0.956168 0.224417 4.09009e-20)
(1.06416 0.262013 -5.5401e-21)
(1.14724 0.289535 -4.39218e-20)
(1.20617 0.305984 -7.4576e-21)
(1.24303 0.312453 -6.86448e-21)
(0.117067 0.0149537 -1.62399e-20)
(0.325046 0.0517183 8.88114e-21)
(0.516727 0.101271 2.57758e-20)
(0.690357 0.154513 1.04698e-20)
(0.843052 0.206455 -1.63041e-19)
(0.972098 0.252636 -2.20054e-20)
(1.07576 0.289509 -2.44181e-20)
(1.15385 0.314999 7.74803e-20)
(1.20785 0.328599 -3.04318e-20)
(1.24037 0.332137 -1.45569e-20)
(0.122453 0.0202876 1.74568e-20)
(0.337393 0.0657246 -4.02396e-20)
(0.532818 0.121911 -7.98972e-20)
(0.707412 0.179756 2.35714e-20)
(0.858685 0.234213 7.66171e-20)
(0.984459 0.280925 1.65177e-20)
(1.08368 0.316647 1.3353e-20)
(1.15691 0.339748 -2.98694e-20)
(1.20633 0.350262 -3.89691e-20)
(1.235 0.350749 9.55395e-20)
(0.127362 0.0259965 3.48671e-20)
(0.348379 0.0804891 1.65709e-19)
(0.546755 0.143344 2.76818e-20)
(0.721637 0.205587 -1.2147e-19)
(0.870981 0.262197 7.00664e-20)
(0.9932 0.309014 -1.21802e-20)
(1.08795 0.343181 -1.38827e-19)
(1.15653 0.36358 1.14132e-20)
(1.20176 0.370824 -3.29925e-20)
(1.2271 0.368195 -7.24524e-20)
(0.131728 0.0320315 -1.35991e-19)
(0.357867 0.0958757 -1.72641e-19)
(0.558378 0.165364 -3.29618e-20)
(0.732892 0.231751 2.97797e-19)
(0.879857 0.29013 -1.52417e-20)
(0.998311 0.336634 2.19132e-19)
(1.08863 0.368875 1.55716e-19)
(1.15282 0.386307 1.32349e-19)
(1.19433 0.390144 2.59924e-20)
(1.21685 0.384388 -8.22924e-20)
(0.135491 0.0383359 1.26772e-19)
(0.365731 0.111733 -1.35362e-19)
(0.567553 0.18775 9.21912e-20)
(0.741072 0.257982 -1.0943e-19)
(0.885264 0.317734 2.75615e-20)
(0.999816 0.363521 -1.5684e-19)
(1.08582 0.393504 1.0439e-20)
(1.14595 0.407751 -1.8731e-20)
(1.18419 0.408093 2.74342e-20)
(1.20444 0.399252 1.39645e-19)
(0.138597 0.0448464 8.07126e-21)
(0.371868 0.127898 4.60431e-20)
(0.574173 0.210268 -6.46858e-20)
(0.746107 0.284009 -2.84753e-20)
(0.887192 0.344732 -6.07649e-20)
(0.997771 0.389422 1.39011e-19)
(1.07962 0.416854 -1.8855e-19)
(1.13605 0.42775 -6.49166e-20)
(1.17151 0.424548 2.94642e-20)
(1.18998 0.412709 -4.40918e-20)
(0.140999 0.0514934 1.37031e-20)
(0.376193 0.144195 6.96868e-20)
(0.578162 0.232675 2.77632e-19)
(0.747961 0.309558 -2.3056e-19)
(0.885668 0.37085 -1.17209e-19)
(0.992267 0.414091 -6.59535e-20)
(1.07018 0.438729 1.75676e-19)
(1.12331 0.446159 6.24125e-20)
(1.15647 0.439416 -1.03747e-19)
(1.17353 0.424646 -4.05552e-20)
(0.14266 0.0582026 -4.73138e-20)
(0.378643 0.160443 -1.0717e-19)
(0.579476 0.254725 -2.07625e-19)
(0.746637 0.334353 1.79791e-19)
(0.880752 0.395822 5.58423e-21)
(0.983422 0.437297 -1.49499e-19)
(1.05767 0.458944 6.66031e-20)
(1.1079 0.462851 -5.4626e-21)
(1.13924 0.452675 4.53352e-20)
(1.15541 0.434929 -1.11067e-20)
(0.14355 0.0648954 -2.44953e-20)
(0.379179 0.176454 1.75136e-19)
(0.578102 0.276168 2.2027e-19)
(0.74217 0.358127 5.96781e-20)
(0.872539 0.419393 -4.90231e-20)
(0.971382 0.458822 2.90676e-19)
(1.04226 0.477328 -1.05707e-19)
(1.09002 0.477686 4.18732e-20)
(1.12002 0.46419 1.44719e-19)
(1.1359 0.44367 2.7125e-20)
(0.143653 0.0714907 -8.78659e-20)
(0.377785 0.192036 4.25449e-20)
(0.574058 0.296757 -1.76292e-19)
(0.734632 0.380616 -8.38946e-20)
(0.861155 0.441319 5.90927e-20)
(0.956317 0.478463 -1.96968e-21)
(1.02414 0.493729 -1.74766e-19)
(1.06984 0.490563 -9.29811e-20)
(1.09894 0.473848 -8.78393e-20)
(1.11503 0.450766 -2.91478e-20)
(0.142958 0.0779057 -5.55889e-20)
(0.37447 0.207 -1.80733e-19)
(0.567393 0.316249 1.52665e-19)
(0.724126 0.401569 -3.19276e-22)
(0.846755 0.461373 4.04993e-20)
(0.938419 0.496037 -1.23495e-19)
(1.00352 0.508012 1.54117e-19)
(1.04756 0.501393 1.01663e-19)
(1.07618 0.481591 2.51181e-20)
(1.0929 0.456125 3.81107e-21)
(0.141469 0.0840581 6.60851e-20)
(0.369265 0.221158 2.20989e-20)
(0.55819 0.334409 -1.30987e-19)
(0.710788 0.420747 2.87569e-20)
(0.829521 0.479342 -5.16836e-20)
(0.917902 0.511376 -8.17582e-20)
(0.980629 0.520057 6.05727e-21)
(1.02339 0.510095 -1.18163e-19)
(1.05189 0.487368 -1.86965e-22)
(1.06962 0.459681 3.17542e-20)
(0.139199 0.0898666 -4.01552e-20)
(0.362226 0.234328 1.84901e-19)
(0.546556 0.351013 -1.22018e-19)
(0.694778 0.437927 1.23388e-19)
(0.809659 0.495036 1.28429e-19)
(0.895001 0.524333 -1.34431e-20)
(0.955689 0.529764 -6.87107e-20)
(0.997518 0.516608 1.39518e-20)
(1.02623 0.491136 -7.23048e-22)
(1.04532 0.461372 -9.15262e-22)
(0.136166 0.0952495 3.21712e-20)
(0.353434 0.246336 -5.94887e-20)
(0.53263 0.365849 1.14189e-19)
(0.676286 0.452903 -4.76294e-20)
(0.787401 0.508279 -6.20232e-20)
(0.869963 0.534779 1.10257e-19)
(0.92895 0.537051 -1.33051e-20)
(0.970169 0.520888 1.1472e-20)
(0.999327 0.492866 -1.03303e-20)
(1.02008 0.461124 1.05183e-20)
(0.132405 0.100126 -1.82893e-20)
(0.342991 0.257016 -2.2184e-20)
(0.516571 0.378724 -3.05329e-20)
(0.655527 0.465489 -1.23595e-20)
(0.762994 0.518918 -6.69383e-20)
(0.843053 0.542604 -3.08058e-20)
(0.900674 0.54185 2.48417e-21)
(0.941564 0.522908 -3.34937e-20)
(0.971312 0.492544 1.15408e-19)
(0.993967 0.458855 6.96725e-20)
(0.127963 0.104427 2.0175e-20)
(0.331013 0.266214 -3.11607e-20)
(0.498564 0.389461 -1.15886e-20)
(0.632733 0.47552 -2.77057e-20)
(0.736702 0.526822 2.09436e-20)
(0.814548 0.547716 -1.90145e-20)
(0.871132 0.544113 -4.39153e-21)
(0.911938 0.522661 -1.42935e-20)
(0.942317 0.490172 -2.74557e-20)
(0.967082 0.454444 -1.45864e-19)
(0.12289 0.108086 -2.73698e-21)
(0.317637 0.273793 8.18342e-21)
(0.478813 0.397902 1.21436e-21)
(0.608154 0.482853 3.77112e-21)
(0.7088 0.531877 3.71995e-20)
(0.784731 0.550041 3.75982e-20)
(0.84061 0.543804 1.18551e-19)
(0.881551 0.520157 2.46786e-20)
(0.912531 0.485777 -7.19372e-20)
(0.939519 0.447788 -9.00066e-21)
(0.117245 0.111043 -7.4239e-21)
(0.303017 0.279631 -2.4864e-20)
(0.457539 0.403911 -1.65101e-20)
(0.582056 0.487367 2.06171e-20)
(0.679573 0.533994 3.3577e-20)
(0.753892 0.549522 1.96318e-21)
(0.809395 0.540899 -2.0918e-19)
(0.850705 0.51542 1.93582e-20)
(0.882341 0.47947 1.00065e-20)
(0.911207 0.439092 4.47202e-20)
(0.111093 0.113244 -5.19745e-21)
(0.287321 0.283623 2.57346e-20)
(0.434977 0.407376 -8.99661e-20)
(0.554711 0.488967 2.92349e-20)
(0.649308 0.533105 2.55096e-21)
(0.722314 0.546115 -1.59342e-19)
(0.777766 0.535371 1.61871e-19)
(0.819769 0.508437 -1.53552e-19)
(0.852507 0.471429 1.76379e-19)
(0.881764 0.427978 -1.00638e-19)
(0.10451 0.114643 8.08015e-20)
(0.270729 0.285684 8.218e-20)
(0.411375 0.408208 1.45765e-19)
(0.526402 0.487585 9.14032e-20)
(0.618294 0.529167 2.39707e-20)
(0.690267 0.539798 -2.08363e-21)
(0.745974 0.52719 -1.06701e-19)
(0.789098 0.499068 2.2261e-20)
(0.823692 0.461592 -1.80256e-19)
(0.854836 0.418076 2.38574e-19)
(0.0975716 0.115205 -4.3622e-20)
(0.253429 0.285747 -6.6769e-20)
(0.386987 0.406345 -2.21127e-19)
(0.497416 0.483176 -9.98706e-20)
(0.586817 0.522162 -2.03953e-21)
(0.658013 0.530577 3.32131e-19)
(0.714224 0.516382 2.77207e-19)
(0.758711 0.487362 2.00415e-19)
(0.795214 0.449682 4.38022e-19)
(0.827951 0.406792 2.35794e-19)
(0.090363 0.1149 -2.12489e-20)
(0.235618 0.283765 1.79626e-19)
(0.362076 0.401748 5.87988e-20)
(0.468041 0.475726 -4.87211e-20)
(0.555167 0.5121 6.10754e-20)
(0.625817 0.518481 -4.81299e-19)
(0.682738 0.502999 -2.67209e-19)
(0.728754 0.473419 -1.42244e-19)
(0.767211 0.43586 -2.65201e-19)
(0.801603 0.393949 -8.76325e-20)
(0.0829699 0.113711 -2.9029e-20)
(0.217496 0.279713 -3.23913e-19)
(0.336906 0.394406 2.55907e-20)
(0.43857 0.465244 1.25721e-19)
(0.523631 0.49901 -4.44389e-20)
(0.593943 0.503559 7.139e-20)
(0.651749 0.487097 2.38181e-19)
(0.699427 0.457313 -1.07391e-19)
(0.739907 0.420228 -3.35597e-19)
(0.776086 0.379564 -1.4107e-20)
(0.0754809 0.111628 7.20309e-20)
(0.199268 0.273587 1.00033e-19)
(0.311744 0.384332 1.39244e-19)
(0.409293 0.451765 -7.15158e-20)
(0.492493 0.482948 -2.85159e-19)
(0.562654 0.485874 -3.21529e-19)
(0.621488 0.468743 -1.24516e-19)
(0.670926 0.439099 3.88192e-19)
(0.713481 0.402824 3.30996e-19)
(0.751535 0.363647 3.80226e-19)
(0.0679858 0.108654 -2.3822e-19)
(0.181138 0.265404 3.01039e-19)
(0.286854 0.371564 -2.0622e-19)
(0.380493 0.435348 -1.82257e-19)
(0.462032 0.463986 4.14157e-19)
(0.532203 0.465508 3.83202e-19)
(0.592177 0.448013 4.77841e-19)
(0.64344 0.41884 -1.73006e-19)
(0.688094 0.383684 -1.84377e-19)
(0.728072 0.346214 -5.52331e-19)
(0.0605737 0.104799 1.74431e-19)
(0.163308 0.255199 -7.12066e-20)
(0.262495 0.356166 2.47896e-19)
(0.352448 0.416077 -2.22933e-19)
(0.432515 0.442221 -3.13618e-20)
(0.502833 0.442556 -6.61608e-19)
(0.56403 0.424997 -3.13976e-19)
(0.61715 0.396611 1.81363e-19)
(0.663896 0.362862 7.3529e-20)
(0.705812 0.327297 -7.50806e-21)
(0.0533331 0.100083 8.62758e-20)
(0.145976 0.24303 -2.33603e-19)
(0.23892 0.338224 -3.08387e-19)
(0.325426 0.394058 2.11492e-20)
(0.4042 0.417767 3.11839e-19)
(0.474778 0.417133 -2.49261e-20)
(0.537247 0.399797 -1.15411e-19)
(0.592223 0.372497 -2.08122e-19)
(0.641027 0.340422 -4.0929e-19)
(0.684859 0.306948 1.16231e-20)
(0.0463498 0.0945346 3.29269e-20)
(0.129332 0.228973 -3.18769e-20)
(0.216369 0.317847 5.00256e-19)
(0.299682 0.369421 2.00043e-19)
(0.377332 0.390759 -6.94236e-20)
(0.448257 0.389367 4.85424e-19)
(0.512017 0.372529 -2.59158e-19)
(0.568817 0.346597 3.2942e-19)
(0.619614 0.316443 1.34718e-19)
(0.665311 0.285235 -2.30556e-19)
(0.0397063 0.0881931 1.04766e-19)
(0.11356 0.213123 1.59127e-19)
(0.195075 0.295166 -5.71021e-19)
(0.275459 0.342313 -8.63949e-20)
(0.352139 0.36135 -3.93347e-19)
(0.423474 0.359403 5.37495e-20)
(0.488515 0.343323 7.01029e-20)
(0.547077 0.319023 1.12479e-19)
(0.599774 0.291018 4.18163e-19)
(0.647256 0.262237 9.02189e-20)
(0.0334813 0.0811047 -1.42563e-19)
(0.0988325 0.195592 2.04865e-19)
(0.175251 0.270332 1.39569e-20)
(0.252981 0.312907 5.50376e-20)
(0.328835 0.329711 3.90046e-19)
(0.400618 0.327403 7.32987e-21)
(0.466901 0.312323 1.05593e-19)
(0.527135 0.289895 -5.42612e-20)
(0.581616 0.26425 -2.62863e-19)
(0.630776 0.238048 -8.03859e-20)
(0.027748 0.0733244 2.81305e-19)
(0.0853092 0.176508 -2.25963e-19)
(0.157099 0.243517 2.8709e-19)
(0.232455 0.281388 -1.76366e-20)
(0.307616 0.296029 -7.8451e-21)
(0.379862 0.293539 -3.86435e-19)
(0.447323 0.279681 7.71905e-20)
(0.509112 0.259348 2.41653e-20)
(0.565238 0.236253 -1.02593e-19)
(0.615946 0.21277 4.65068e-19)
(0.0225738 0.0649141 -3.09367e-19)
(0.0731373 0.156015 1.75858e-19)
(0.1408 0.214907 -1.78913e-19)
(0.214071 0.247963 -1.07862e-19)
(0.288657 0.260507 -3.32858e-20)
(0.361363 0.257999 8.88211e-20)
(0.429912 0.245564 1.32081e-19)
(0.493118 0.227525 1.40192e-19)
(0.550728 0.20715 -2.50876e-19)
(0.602834 0.186515 -1.75724e-19)
(0.0180195 0.0559428 8.2399e-20)
(0.0624484 0.13427 -4.31069e-20)
(0.126518 0.184708 -2.76964e-20)
(0.197997 0.212851 3.38814e-19)
(0.272116 0.223359 -6.46421e-20)
(0.345256 0.22098 -7.41315e-20)
(0.414785 0.210147 1.46541e-19)
(0.479248 0.194577 -7.39217e-20)
(0.538167 0.177073 5.71997e-20)
(0.591502 0.159402 1.17901e-19)
(0.0141387 0.0464854 7.31471e-20)
(0.0533581 0.111444 -2.50516e-20)
(0.114393 0.153138 5.77712e-20)
(0.184377 0.176288 -1.86207e-19)
(0.258128 0.184813 4.38771e-20)
(0.331662 0.18269 2.98198e-19)
(0.402042 0.173612 -1.88261e-19)
(0.467587 0.160662 -3.2645e-19)
(0.527624 0.14616 -1.03808e-19)
(0.582008 0.131555 4.19818e-21)
(0.0109768 0.036622 2.33687e-20)
(0.0459644 0.087716 -7.53145e-20)
(0.104548 0.120427 1.55625e-19)
(0.173335 0.138518 -5.82383e-20)
(0.246807 0.145107 9.93328e-20)
(0.32068 0.143346 -2.47027e-19)
(0.391768 0.136151 1.29974e-19)
(0.458204 0.125946 1.15869e-19)
(0.519159 0.114554 1.85941e-19)
(0.574404 0.103104 -1.69631e-19)
(0.00857112 0.0264374 -8.1914e-20)
(0.040347 0.0632756 4.13201e-20)
(0.0970782 0.0868151 -7.01909e-20)
(0.164971 0.0997968 -9.7767e-20)
(0.238246 0.104488 -2.19206e-19)
(0.312389 0.103172 1.65351e-19)
(0.384027 0.0979581 -4.29257e-20)
(0.451155 0.0905968 1.36814e-19)
(0.512822 0.0824019 -1.26526e-19)
(0.568738 0.0741833 1.11562e-19)
(0.00694991 0.0160196 2.73165e-20)
(0.0365666 0.0383191 -9.33235e-21)
(0.0920585 0.0525519 -1.09894e-20)
(0.159359 0.0603879 8.23323e-20)
(0.232511 0.0632067 4.46075e-20)
(0.306849 0.0623958 -4.6828e-20)
(0.37887 0.0592346 -7.14317e-21)
(0.446479 0.0547848 -1.43598e-19)
(0.50865 0.0498476 1.09126e-19)
(0.565052 0.0449191 3.44689e-20)
(0.00613237 0.00545948 -6.44327e-21)
(0.0346638 0.013048 -1.50403e-20)
(0.0895381 0.0178918 -8.65609e-21)
(0.156548 0.0205601 5.93362e-21)
(0.22965 0.0215229 3.46664e-20)
(0.304097 0.0212523 6.57748e-21)
(0.376327 0.0201843 2.4076e-20)
(0.444199 0.0186827 4.56431e-20)
(0.506659 0.0170298 -4.31369e-21)
(0.56337 0.0154165 -4.91541e-20)
(0.00612828 -0.00515042 -1.1838e-20)
(0.0346595 -0.0123328 -1.78427e-20)
(0.089542 -0.0169065 3.13241e-21)
(0.156565 -0.0194139 -4.22961e-21)
(0.229683 -0.0203022 4.07423e-20)
(0.304151 -0.0200216 -1.50117e-21)
(0.376406 -0.0189854 2.52771e-20)
(0.444315 -0.0175324 4.28675e-20)
(0.50683 -0.0159115 6.91897e-21)
(0.563635 -0.014271 -5.69378e-20)
(0.00693793 -0.015717 4.69302e-20)
(0.0365539 -0.0376171 9.84283e-21)
(0.09207 -0.0515831 -2.94323e-20)
(0.159408 -0.0592597 1.09918e-19)
(0.232609 -0.0620053 1.31832e-20)
(0.307007 -0.0611869 -2.05229e-20)
(0.379104 -0.0580633 -7.75009e-21)
(0.446815 -0.0536746 -1.31206e-19)
(0.509132 -0.0488007 9.19979e-20)
(0.565759 -0.0439238 -1.42313e-20)
(0.00855208 -0.0261475 -8.96177e-20)
(0.0403271 -0.0625997 1.17413e-20)
(0.0970976 -0.0858786 -4.90192e-20)
(0.165051 -0.0987039 -1.1269e-19)
(0.238404 -0.103324 -2.29229e-19)
(0.312644 -0.102004 1.66679e-19)
(0.3844 -0.0968374 -6.6931e-22)
(0.451678 -0.0895554 1.25754e-19)
(0.513549 -0.0814608 -1.57959e-19)
(0.569745 -0.0733618 1.44877e-19)
(0.010952 -0.0363504 -9.46888e-21)
(0.045939 -0.0870777 5.5136e-21)
(0.104575 -0.119537 -5.39519e-20)
(0.173444 -0.137476 8.00644e-20)
(0.24702 -0.143997 6.19543e-20)
(0.321019 -0.142237 -2.87929e-19)
(0.392257 -0.135098 8.8982e-20)
(0.458878 -0.12499 2.48847e-19)
(0.520064 -0.113727 8.05552e-20)
(0.575596 -0.102438 -1.06679e-19)
(0.0141098 -0.0462368 -1.60772e-20)
(0.0533295 -0.110854 -6.79459e-20)
(0.11443 -0.152308 1.46232e-19)
(0.184512 -0.175311 -1.73409e-19)
(0.258388 -0.183771 -1.13982e-19)
(0.332071 -0.181652 4.35332e-19)
(0.402626 -0.172638 -3.66534e-19)
(0.468374 -0.159798 -2.19753e-19)
(0.528649 -0.145444 -7.50083e-20)
(0.583304 -0.131018 2.27513e-20)
(0.0179887 -0.0557211 1.14396e-19)
(0.0624196 -0.133736 5.56287e-20)
(0.126563 -0.183948 -4.76777e-20)
(0.198155 -0.21195 3.74821e-19)
(0.272416 -0.222395 -1.80157e-19)
(0.345722 -0.220023 4.1875e-20)
(0.41544 -0.209258 2.33475e-21)
(0.480116 -0.193806 -3.70609e-20)
(0.539267 -0.176459 9.02058e-20)
(0.592847 -0.158973 5.00207e-20)
(0.0225431 -0.0647221 -2.39647e-19)
(0.0731115 -0.155543 2.8546e-20)
(0.140857 -0.214225 -1.65713e-19)
(0.214251 -0.247146 -6.29528e-20)
(0.28899 -0.259629 5.76077e-20)
(0.361872 -0.257129 3.27745e-20)
(0.430618 -0.244765 3.20097e-20)
(0.494037 -0.226846 8.25006e-20)
(0.551868 -0.20663 -4.02653e-20)
(0.60419 -0.186175 -3.14118e-19)
(0.0277198 -0.0731637 2.47911e-19)
(0.0852899 -0.176103 -1.56932e-19)
(0.157168 -0.242919 2.94439e-19)
(0.232654 -0.280663 -3.95687e-20)
(0.307975 -0.295244 -7.74335e-20)
(0.380403 -0.292761 -3.21465e-19)
(0.448063 -0.278972 1.46873e-19)
(0.51006 -0.258758 -2.44303e-19)
(0.566391 -0.235817 1.68544e-19)
(0.617289 -0.212504 2.14983e-19)
(0.0334578 -0.0809761 -1.90278e-19)
(0.098823 -0.195256 9.90975e-20)
(0.175334 -0.269822 2.17584e-19)
(0.253198 -0.312277 -2.61333e-20)
(0.329215 -0.329022 4.0792e-19)
(0.401181 -0.326719 3.04075e-20)
(0.46766 -0.311703 -2.55689e-20)
(0.528093 -0.289389 1.26376e-19)
(0.582764 -0.26389 -2.72642e-19)
(0.632092 -0.237843 -1.12695e-19)
(0.0396895 -0.0880961 1.43419e-19)
(0.113564 -0.212856 2.13146e-19)
(0.195174 -0.294745 -5.55389e-19)
(0.275693 -0.341781 -2.07087e-19)
(0.352535 -0.360759 -7.34238e-20)
(0.42405 -0.358813 -1.45129e-19)
(0.489281 -0.342792 1.58908e-19)
(0.548032 -0.318597 -2.23555e-20)
(0.600903 -0.290728 4.35346e-19)
(0.648534 -0.262086 -3.92206e-20)
(0.0463414 -0.0944683 -3.69382e-20)
(0.129352 -0.228774 -1.09175e-19)
(0.216487 -0.317515 6.7625e-19)
(0.299933 -0.368985 9.55874e-20)
(0.377741 -0.390265 -9.1212e-20)
(0.44884 -0.38887 4.59065e-19)
(0.512782 -0.372083 4.06921e-22)
(0.56976 -0.346248 1.04419e-20)
(0.620714 -0.316218 1.41499e-19)
(0.666547 -0.285133 -2.23255e-20)
(0.0533347 -0.100045 2.76915e-20)
(0.146015 -0.242896 -1.63582e-19)
(0.239057 -0.337977 -4.22829e-19)
(0.325693 -0.393717 1.92589e-19)
(0.40462 -0.417369 -1.24546e-20)
(0.475364 -0.416727 1.39329e-19)
(0.538004 -0.399434 3.23696e-20)
(0.593145 -0.372221 -4.01811e-19)
(0.642093 -0.340257 -3.36344e-19)
(0.686052 -0.306893 4.15414e-20)
(0.0605864 -0.104788 -4.2521e-20)
(0.163368 -0.255125 -4.73905e-20)
(0.262654 -0.356001 3.2612e-19)
(0.352733 -0.415827 -1.43936e-19)
(0.432944 -0.441916 -1.46669e-19)
(0.503418 -0.442239 -5.35305e-19)
(0.564774 -0.424714 -2.91262e-19)
(0.618046 -0.396404 1.58452e-19)
(0.664925 -0.362756 4.17494e-20)
(0.706959 -0.327288 1.93177e-19)
(0.0680103 -0.108667 -2.00472e-19)
(0.181221 -0.265385 2.84869e-19)
(0.287036 -0.371475 -4.50821e-19)
(0.380795 -0.435185 1.61474e-19)
(0.462469 -0.463769 1.55865e-19)
(0.532785 -0.465275 5.38235e-19)
(0.592906 -0.447807 3.62815e-19)
(0.644307 -0.4187 -1.96412e-19)
(0.689081 -0.383637 -3.04485e-19)
(0.729173 -0.346253 -3.2812e-19)
(0.0755177 -0.111661 1.46168e-19)
(0.199375 -0.273619 3.39544e-20)
(0.311951 -0.384313 4.70042e-22)
(0.409614 -0.451682 -1.25279e-20)
(0.492939 -0.482814 -3.90845e-19)
(0.563232 -0.485721 -3.24106e-20)
(0.622198 -0.46861 -3.36462e-19)
(0.671761 -0.439023 3.06322e-19)
(0.714425 -0.402833 6.00481e-19)
(0.752588 -0.363738 3.11298e-19)
(0.0830189 -0.113761 -1.85779e-19)
(0.217627 -0.279788 -2.91848e-19)
(0.337138 -0.394449 -5.01656e-22)
(0.438911 -0.465235 1.85528e-19)
(0.524085 -0.498954 -1.02631e-19)
(0.594516 -0.50348 2.05915e-19)
(0.65244 -0.487032 3.90783e-20)
(0.700229 -0.457297 -1.34082e-19)
(0.740805 -0.420292 -1.74614e-19)
(0.777086 -0.379711 -1.34613e-19)
(0.090424 -0.114964 -7.63539e-20)
(0.235773 -0.283877 1.5875e-19)
(0.362333 -0.401847 1.23142e-19)
(0.468401 -0.475783 2.44154e-21)
(0.55563 -0.512114 -6.80468e-20)
(0.626385 -0.518471 -3.6223e-19)
(0.68341 -0.502996 -3.20539e-19)
(0.729523 -0.473459 -4.30584e-20)
(0.768062 -0.435975 -4.12257e-19)
(0.802545 -0.394153 -1.95421e-19)
(0.097644 -0.11528 -8.06029e-21)
(0.253608 -0.28589 -2.03508e-19)
(0.387269 -0.406491 -4.82984e-20)
(0.497795 -0.483292 -2.17217e-19)
(0.58729 -0.522239 1.21413e-19)
(0.658578 -0.530628 3.13985e-19)
(0.714877 -0.516436 1.72276e-19)
(0.759446 -0.487451 2.04493e-19)
(0.796017 -0.449842 4.88505e-19)
(0.828825 -0.407054 7.29452e-20)
(0.104592 -0.114727 1.31148e-19)
(0.27093 -0.285852 3.5864e-20)
(0.411681 -0.408394 1.05393e-19)
(0.526801 -0.487751 8.19903e-20)
(0.618777 -0.5293 5.99839e-20)
(0.690829 -0.539905 -1.38995e-20)
(0.746611 -0.527293 -5.06811e-20)
(0.789802 -0.4992 -9.26897e-20)
(0.824447 -0.46179 -1.44582e-19)
(0.855631 -0.418405 2.44658e-19)
(0.111186 -0.113333 -9.96895e-23)
(0.287543 -0.28381 3.71588e-20)
(0.435307 -0.407594 -3.55081e-20)
(0.55513 -0.489176 -6.55026e-20)
(0.649803 -0.533286 7.47497e-20)
(0.722876 -0.54627 -1.5179e-19)
(0.778388 -0.535517 4.49329e-20)
(0.820445 -0.508601 2.73952e-20)
(0.853217 -0.471653 8.69097e-22)
(0.882431 -0.428384 -1.00423e-19)
(0.117346 -0.111135 4.68103e-21)
(0.303258 -0.27983 -3.92243e-20)
(0.45789 -0.404153 1.31279e-20)
(0.582493 -0.48761 7.48626e-21)
(0.680079 -0.534215 -8.57773e-21)
(0.754456 -0.549718 5.4046e-20)
(0.810007 -0.541082 -1.82517e-19)
(0.851357 -0.51561 5.66068e-20)
(0.883018 -0.479693 -1.36149e-19)
(0.911813 -0.4394 5.32986e-20)
(0.122998 -0.108179 -3.13316e-22)
(0.317894 -0.274 6.12792e-21)
(0.479184 -0.398162 -1.63675e-21)
(0.60861 -0.483123 -1.88607e-21)
(0.709319 -0.532132 4.20961e-20)
(0.785298 -0.550273 6.71663e-20)
(0.841215 -0.544019 1.1079e-19)
(0.882183 -0.520371 -3.31425e-20)
(0.913175 -0.48601 -5.60752e-20)
(0.940095 -0.448077 -3.87188e-21)
(0.128076 -0.104519 2.7407e-20)
(0.331285 -0.266424 -3.12841e-20)
(0.498953 -0.389733 -1.9295e-20)
(0.633205 -0.475812 -1.81635e-20)
(0.737232 -0.527104 1.84016e-20)
(0.815119 -0.547978 -1.40307e-20)
(0.871731 -0.544356 -2.52674e-20)
(0.912552 -0.522898 -1.88828e-20)
(0.942926 -0.490419 5.99217e-20)
(0.967617 -0.454724 -2.7185e-19)
(0.132523 -0.100216 4.61578e-22)
(0.343275 -0.257225 -1.39302e-20)
(0.516975 -0.379002 -5.31548e-20)
(0.656013 -0.465795 -2.33071e-20)
(0.763536 -0.519222 -4.07029e-20)
(0.843629 -0.54289 -3.58016e-20)
(0.901268 -0.542118 -3.68115e-21)
(0.942161 -0.523166 -1.44555e-20)
(0.971887 -0.492803 1.38527e-19)
(0.994455 -0.459127 4.65615e-20)
(0.136287 -0.0953354 1.00431e-19)
(0.353727 -0.24654 -7.39205e-20)
(0.533046 -0.366128 4.42869e-20)
(0.676786 -0.453217 3.02692e-21)
(0.787953 -0.508597 -4.51683e-20)
(0.870543 -0.535085 8.44323e-20)
(0.929541 -0.537338 -8.92575e-22)
(0.970751 -0.521162 9.51599e-21)
(0.999872 -0.493134 -2.79607e-20)
(1.02052 -0.46139 1.83531e-20)
(0.139322 -0.0899476 -4.68621e-20)
(0.362526 -0.234525 1.53209e-19)
(0.546982 -0.351288 -5.12734e-20)
(0.695288 -0.438244 5.01427e-21)
(0.81022 -0.495364 1.78153e-19)
(0.895585 -0.524653 -3.91337e-20)
(0.956276 -0.530068 -4.54046e-20)
(0.998086 -0.516896 3.80931e-20)
(1.02675 -0.491412 -8.50882e-21)
(1.04573 -0.461634 4.63131e-22)
(0.141593 -0.0841335 4.34881e-20)
(0.369568 -0.221346 3.05707e-20)
(0.558622 -0.334677 5.58759e-21)
(0.711306 -0.421062 -3.91177e-20)
(0.830089 -0.479675 -3.19868e-20)
(0.91849 -0.511706 -1.38387e-19)
(0.981213 -0.520372 -3.93378e-22)
(1.02394 -0.510394 -7.97286e-20)
(1.05239 -0.48765 4.41197e-21)
(1.07001 -0.459942 1.73642e-20)
(0.143081 -0.0779749 -2.23962e-20)
(0.374774 -0.207177 -2.85221e-19)
(0.567829 -0.316507 1.90381e-19)
(0.724649 -0.401878 8.98342e-20)
(0.847328 -0.461705 -1.29092e-19)
(0.93901 -0.496371 -3.86576e-20)
(1.00411 -0.508335 1.17132e-19)
(1.04811 -0.501699 1.5148e-19)
(1.07666 -0.481877 1.31011e-21)
(1.09326 -0.456383 1.09983e-20)
(0.143774 -0.0715533 -5.13062e-20)
(0.378088 -0.1922 1.01758e-19)
(0.574493 -0.297002 -2.93739e-19)
(0.735158 -0.380916 -9.96575e-20)
(0.861731 -0.441647 1.06933e-19)
(0.95691 -0.478799 2.64181e-20)
(1.02472 -0.494057 -1.59358e-19)
(1.07038 -0.490874 -9.48617e-20)
(1.09941 -0.474137 -1.09311e-19)
(1.11538 -0.451023 -3.42833e-20)
(0.143669 -0.0649514 2.07176e-20)
(0.379478 -0.176603 2.26403e-19)
(0.578535 -0.276397 1.05909e-19)
(0.742695 -0.358414 1.25615e-19)
(0.873116 -0.419714 -3.90375e-20)
(0.971976 -0.459154 1.87175e-19)
(1.04284 -0.477656 -2.75718e-20)
(1.09055 -0.477999 8.36154e-20)
(1.12048 -0.46448 1.33076e-19)
(1.13624 -0.443926 -5.42851e-20)
(0.142775 -0.0582519 -7.21627e-20)
(0.378936 -0.160578 -1.43017e-19)
(0.579904 -0.254938 -1.05879e-19)
(0.747158 -0.334626 1.01681e-19)
(0.881327 -0.396132 2.05281e-20)
(0.984015 -0.437623 -1.83123e-19)
(1.05825 -0.45927 2.6375e-20)
(1.10843 -0.463164 5.12874e-20)
(1.1397 -0.452965 3.63727e-20)
(1.15575 -0.435183 2.17868e-20)
(0.14111 -0.0515362 4.59576e-20)
(0.376478 -0.144316 1.43171e-19)
(0.578582 -0.23287 1.38066e-19)
(0.748476 -0.309813 -1.75426e-19)
(0.88624 -0.371146 -1.27574e-19)