/*--------------------------------*- C++ -*----------------------------------*\
  =========                 |
  \\      /  F ield         | OpenFOAM: The Open Source CFD Toolbox
   \\    /   O peration     | Website:  https://openfoam.org
    \\  /    A nd           | Version:  7
     \\/     M anipulation  |
\*---------------------------------------------------------------------------*/
FoamFile
{
    version     2.0;
    format      ascii;
    class       surfaceScalarField;
    location    "5";
    object      phi;
}
// * * * * * * * * * * * * * * * * * * * * * * * * * * * * * * * * * * * * * //

dimensions      [0 3 -1 0 0 0 0];

internalField   nonuniform List<scalar> 
12526
(
9.21953e-05
8.70271e-05
8.36923e-05
1.73235e-06
8.196e-05
0.000196743
6.22069e-07
8.13379e-05
0.000182241
1.97495e-07
8.11404e-05
1.56135e-05
0.000166825
0.000171584
4.85798e-07
8.06546e-05
1.86924e-05
0.000148618
7.08769e-05
0.0001194
-3.22335e-05
1.54865e-06
7.91059e-05
2.44524e-05
0.000125715
8.73501e-05
5.6502e-05
-0.000157324
3.35287e-06
7.57531e-05
3.27541e-05
9.63133e-05
0.000109165
-1.99087e-05
0.000257475
-0.000305635
-0.000801409
5.79053e-06
6.99626e-05
4.3306e-05
5.87979e-05
0.000135655
-0.000112258
0.00030977
-0.00047975
0.00059263
-0.00108427
-0.00194802
8.74886e-06
6.12137e-05
5.57591e-05
1.17876e-05
0.000166007
-0.000222506
0.00036751
-0.000681253
0.000684101
-0.00140086
0.00111813
-0.00238205
-0.00355372
1.21324e-05
4.90813e-05
6.97757e-05
-4.58557e-05
0.000199373
-0.000352103
0.000428712
-0.000910592
0.000775456
-0.0017476
0.0012268
-0.00283339
0.00173146
-0.00405839
-0.00528274
1.5873e-05
3.32083e-05
8.50619e-05
-0.000115045
0.000234913
-0.000501955
0.000491269
-0.00116695
0.000862396
-0.00211873
0.00131901
-0.00329
0.00179911
-0.00453849
0.00223975
-0.00572338
-0.00675636
1.99277e-05
1.32805e-05
0.00010136
-0.000196476
0.000271769
-0.000672364
0.000552946
-0.00144812
0.000940866
-0.00250665
0.0013908
-0.00373993
0.00183654
-0.00498423
0.00222552
-0.00611236
0.00253967
-0.00707051
-0.00790289
2.42676e-05
-1.09871e-05
0.000118416
-0.000290625
0.000309015
-0.000862963
0.000611421
-0.00175053
0.0010074
-0.00290262
0.00144005
-0.00417259
0.0018452
-0.00538939
0.0021831
-0.00645026
0.00244829
-0.0073357
-0.00810809
0.00265349
2.88636e-05
-3.98507e-05
0.00013595
-0.000397712
0.000345621
-0.00107263
0.000664394
-0.0020693
0.00105939
-0.00329762
0.00146633
-0.00457953
0.00182787
-0.00575092
0.00211743
-0.00673982
0.00233963
-0.0075579
-0.00827969
0.00251122
3.36742e-05
-7.35249e-05
0.000153622
-0.00051766
0.000380456
-0.00129947
0.000709774
-0.00239862
0.00109531
-0.00368315
0.00147056
-0.00495478
0.00178798
-0.00606835
0.00203318
-0.00698502
0.00221819
-0.0077429
-0.00842313
0.00236162
3.86378e-05
-0.000112163
0.00017103
-0.000650051
0.000412345
-0.00154078
0.000745865
-0.00273214
0.00111464
-0.00405193
0.00145457
-0.00529471
0.0017292
-0.00634298
0.00193454
-0.00719036
0.00208757
-0.00789592
-0.00854268
0.00220712
4.36704e-05
-0.000155833
0.000187714
-0.000794095
0.00044015
-0.00179322
0.000771505
-0.0030635
0.00111777
-0.00439819
0.00142074
-0.00559768
0.00165504
-0.00657728
0.00182505
-0.00736037
0.00195056
-0.00802143
-0.00864159
0.00204947
4.86686e-05
-0.000204502
0.000203185
-0.000948612
0.000462874
-0.00205291
0.000786125
-0.00338675
0.00110574
-0.00471781
0.00137165
-0.00586359
0.00156871
-0.00677434
0.00170763
-0.00749929
0.00180931
-0.00812311
-0.00872225
0.00188997
5.35143e-05
-0.000258016
0.000216952
-0.00111205
0.000479743
-0.0023157
0.000789704
-0.00369671
0.00108004
-0.00500815
0.00130988
-0.00609343
0.00147304
-0.0069375
0.00158464
-0.00761088
0.00166541
-0.00820389
-0.00878637
0.00172954
5.80817e-05
-0.000316098
0.000228561
-0.00128253
0.000490254
-0.00257739
0.000782684
-0.00398914
0.00104238
-0.00526784
0.00123787
-0.00628892
0.00137041
-0.00707004
0.00145791
-0.00769838
0.00152005
-0.00826604
-0.00883516
0.00156884
6.22443e-05
-0.000378342
0.000237623
-0.00145791
0.000494195
-0.00283396
0.000765843
-0.00426079
0.000994531
-0.00549653
0.00115779
-0.00645218
0.00126279
-0.00717504
0.00132888
-0.00776447
0.00137411
-0.00831126
-0.00886943
0.00140838
6.58814e-05
-0.000444223
0.000243842
-0.00163587
0.000491623
-0.00308174
0.000740177
-0.00450934
0.000938249
-0.0056946
0.00107158
-0.00658551
0.00115181
-0.00725527
0.00119866
-0.00781132
0.00122823
-0.00834084
-0.00888977
0.00124857
6.88843e-05
-0.000513108
0.000247025
-0.00181401
0.00048282
-0.00331754
0.000706795
-0.00473331
0.000875163
-0.00586297
0.000980866
-0.00669121
0.00103874
-0.00731314
0.00106807
-0.00784065
0.00108292
-0.00835568
-0.00889656
0.00108971
7.11612e-05
-0.000584269
0.000247091
-0.00198994
0.000468237
-0.00353868
0.000666841
-0.00493192
0.00080675
-0.00600288
0.000887036
-0.0067715
0.000924606
-0.00735071
0.000937766
-0.00785381
0.000938526
-0.00835644
-0.00889008
0.000932042
7.26396e-05
-0.000656909
0.000244058
-0.00216136
0.00044844
-0.00374307
0.000621432
-0.00510491
0.000734319
-0.00611576
0.00079123
-0.00682841
0.00081022
-0.0073697
0.000808226
-0.00785182
0.000795351
-0.00834357
-0.00887041
0.000775683
7.32696e-05
-0.000730178
0.000238038
-0.00232613
0.000424059
-0.00392909
0.000571621
-0.00525247
0.000659006
-0.00620315
0.000694382
-0.00686379
0.000696201
-0.00737152
0.000679817
-0.00783544
0.000653613
-0.00831736
-0.00883756
0.000620761
7.30236e-05
-0.000803202
0.000229215
-0.00248232
0.000395747
-0.00409562
0.000518372
-0.0053751
0.000581782
-0.00626656
0.000597254
-0.00687926
0.000583041
-0.00735731
0.000552818
-0.00780521
0.000513487
-0.00827803
-0.00879144
0.000467369
7.18956e-05
-0.000875098
0.000217826
-0.00262825
0.000364148
-0.00424194
0.000462551
-0.0054735
0.000503469
-0.00630748
0.000500466
-0.00687625
0.000471149
-0.00732799
0.000427474
-0.00776154
0.000375063
-0.00822562
-0.00873197
0.000315592
6.99002e-05
-0.000944998
0.000204139
-0.00276249
0.000329877
-0.00436768
0.00040492
-0.00554854
0.00042475
-0.00632731
0.00040452
-0.00685602
0.000360888
-0.00728436
0.000304119
-0.00770477
0.000238336
-0.00815984
-0.00865891
0.000165274
6.7072e-05
-0.00101207
0.000188453
-0.00288387
0.00029351
-0.00447274
0.000346138
-0.00560117
0.000346189
-0.00632736
0.000309805
-0.00681964
0.000252526
-0.00722708
0.000183135
-0.00763538
0.000103988
-0.00808069
-0.00856727
1.23516e-05
6.34644e-05
-0.00107553
0.00017109
-0.00299149
0.000255573
-0.00455722
0.000286777
-0.00563238
0.00026825
-0.00630883
0.000216625
-0.00676802
0.000146197
-0.00715666
6.42433e-05
-0.00755342
-2.58539e-05
-0.00799059
-0.00846537
-0.000127753
5.91432e-05
-0.00113468
0.000152345
-0.00308469
0.000216544
-0.00462142
0.000227323
-0.00564316
0.000191308
-0.00627281
0.00012523
-0.00670194
4.19241e-05
-0.00707335
-5.21789e-05
-0.00745932
-0.000156213
-0.00788656
-0.00835329
-0.000268295
5.41853e-05
-0.00118886
0.000132502
-0.00316301
0.000176846
-0.00466576
0.000168182
-0.00563449
0.000115661
-0.00622029
3.57623e-05
-0.00662204
-5.9636e-05
-0.00697795
-0.000165597
-0.00735336
-0.000282247
-0.00776991
-0.00822862
-0.000406919
4.86761e-05
-0.00123754
0.000111837
-0.00322617
0.000136858
-0.00469079
0.00010968
-0.00560731
4.15764e-05
-0.00615219
-5.13736e-05
-0.00652909
-0.000158614
-0.00687071
-0.000276612
-0.00723536
-0.000405294
-0.00764123
-0.00809117
-0.000542741
4.27047e-05
-0.00128024
9.06187e-05
-0.00327409
9.69144e-05
-0.00469708
5.21189e-05
-0.00556252
-3.07284e-05
-0.00606934
-0.000136192
-0.00642363
-0.000255154
-0.00675175
-0.000384819
-0.0071057
-0.000525428
-0.00750062
-0.00794115
-0.000675452
3.63546e-05
-0.0013166
6.9097e-05
-0.00330683
5.73299e-05
-0.00468531
-3.65945e-06
-0.00550153
-0.000101037
-0.00597196
-0.000218743
-0.00630592
-0.000349078
-0.00662141
-0.000490128
-0.00696465
-0.000642526
-0.00734822
-0.00777885
-0.000804827
2.97194e-05
-0.00134632
4.74747e-05
-0.00332458
1.87672e-05
-0.00465661
-5.92911e-05
-0.00542347
-0.000169544
-0.00586171
-0.000298889
-0.00617657
-0.000440301
-0.00648
-0.00059249
-0.00681246
-0.000756466
-0.00718425
-0.00760474
-0.000930571
2.29654e-05
-0.00136928
2.59528e-05
-0.00332757
-1.99801e-05
-0.00461067
-0.000112856
-0.0053306
-0.000235959
-0.00573861
-0.00037656
-0.00603597
-0.000528767
-0.0063278
-0.000691864
-0.00664936
-0.000867127
-0.00700898
-0.00741956
-0.00105231
1.6102e-05
-0.00138538
5.78193e-06
-0.00331725
-5.83058e-05
-0.00454659
-0.000165053
-0.00522385
-0.00030022
-0.00560344
-0.000451702
-0.00588449
-0.00061443
-0.00616507
-0.000788197
-0.00647559
-0.000974426
-0.00682275
-0.00722379
-0.00117019
8.82095e-06
-0.00139421
-1.68092e-05
-0.00329162
-9.52354e-05
-0.00446816
-0.000215563
-0.00510352
-0.000362272
-0.00545673
-0.000524272
-0.00572249
-0.000697277
-0.00599206
-0.000881477
-0.00629139
-0.00107844
-0.00662579
-0.00701714
-0.0012851
8.49482e-07
-0.00139506
-3.88229e-05
-0.00325195
-0.000131133
-0.00437585
-0.000264252
-0.0049704
-0.000422038
-0.00529895
-0.000594249
-0.00555028
-0.00077738
-0.00580893
-0.000971894
-0.00609688
-0.00117917
-0.00641852
-0.0067996
-0.00139671
-6.08517e-06
-0.00138897
-5.97138e-05
-0.00319832
-0.000165825
-0.00426974
-0.000311068
-0.00482516
-0.000479441
-0.00513057
-0.000661579
-0.00536814
-0.000854825
-0.00561569
-0.00105989
-0.00589181
-0.00127637
-0.00620204
-0.00657319
-0.00150277
-1.32311e-05
-0.00137574
-7.98405e-05
-0.00313171
-0.0001992
-0.00415038
-0.000355947
-0.00466841
-0.000534406
-0.00495211
-0.000726138
-0.00517641
-0.000929349
-0.00541247
-0.00114525
-0.00567591
-0.00137432
-0.00597297
-0.00634983
-0.00159769
-2.03144e-05
-0.00135542
-9.92666e-05
-0.00305276
-0.000231188
-0.00401846
-0.00039883
-0.00450077
-0.00058688
-0.00476406
-0.000787793
-0.0049755
-0.00100033
-0.00519994
-0.00122472
-0.00545152
-0.00145806
-0.00573963
-0.0060708
-0.00173709
-2.72323e-05
-0.00132819
-0.000117965
-0.00296202
-0.000261744
-0.00387468
-0.000439677
-0.00432284
-0.000636843
-0.0045669
-0.000846485
-0.00476585
-0.00106744
-0.00497898
-0.00129932
-0.00521964
-0.00154415
-0.0054948
-0.00579522
-0.00181972
-3.39398e-05
-0.00129425
-0.000135889
-0.00286008
-0.000290828
-0.00371974
-0.000478455
-0.00413521
-0.000684267
-0.00436109
-0.000902225
-0.0045479
-0.00113145
-0.00474976
-0.00137242
-0.00497867
-0.00162866
-0.00523857
-0.00551822
-0.00190566
-4.0405e-05
-0.00125385
-0.000152989
-0.00274749
-0.000318408
-0.00355432
-0.000515138
-0.00393848
-0.00072911
-0.00414711
-0.00095492
-0.00432209
-0.00119199
-0.00451268
-0.00144132
-0.00472934
-0.00170595
-0.00497393
-0.0052365
-0.00198768
-4.66011e-05
-0.00120725
-0.000169225
-0.00262487
-0.000344453
-0.00337909
-0.000549708
-0.00373323
-0.000771364
-0.00392546
-0.00100461
-0.00408884
-0.00124922
-0.00426808
-0.00150645
-0.00447211
-0.0017787
-0.00470168
-0.0049487
-0.0020665
-5.25042e-05
-0.00115474
-0.000184561
-0.00249281
-0.000368939
-0.00319471
-0.00058215
-0.00352001
-0.000811014
-0.00369659
-0.00105128
-0.00384857
-0.001303
-0.00401635
-0.00156756
-0.00420755
-0.00184691
-0.00442233
-0.00465421
-0.00214141
-5.80929e-05
-0.00109665
-0.000198968
-0.00235194
-0.000391848
-0.00300183
-0.000612455
-0.00329941
-0.000848051
-0.003461
-0.0010949
-0.00360172
-0.00135331
-0.00375794
-0.00162472
-0.00393615
-0.00191083
-0.00413622
-0.00435293
-0.0022121
-6.33485e-05
-0.0010333
-0.000212423
-0.00220286
-0.000413164
-0.00280109
-0.000640614
-0.00307196
-0.000882471
-0.00321914
-0.00113547
-0.00334873
-0.00140013
-0.00349328
-0.00167791
-0.00365837
-0.00197044
-0.00384369
-0.00404504
-0.00227833
-6.82547e-05
-0.000965046
-0.000224905
-0.00204621
-0.000432875
-0.00259312
-0.000666623
-0.00283821
-0.000914267
-0.0029715
-0.00117296
-0.00309003
-0.00144342
-0.00322283
-0.00172713
-0.00337465
-0.00202569
-0.00354513
-0.00373084
-0.0023399
-7.27974e-05
-0.000892249
-0.000236398
-0.00188261
-0.000450974
-0.00237855
-0.000690481
-0.0025987
-0.000943435
-0.00271854
-0.00120737
-0.00282609
-0.00148316
-0.00294704
-0.00177235
-0.00308547
-0.00207654
-0.00324094
-0.00341072
-0.00239665
-7.69647e-05
-0.000815284
-0.00024689
-0.00171269
-0.000467455
-0.00215798
-0.000712188
-0.00235397
-0.000969974
-0.00246076
-0.00123869
-0.00255737
-0.00151935
-0.00266639
-0.00181354
-0.00279128
-0.00212289
-0.00293158
-0.00308516
-0.00244845
-8.07465e-05
-0.000734538
-0.00025637
-0.00153706
-0.000482315
-0.00193204
-0.000731744
-0.00210454
-0.000993884
-0.00219862
-0.00126691
-0.00228435
-0.00155195
-0.00238135
-0.00185066
-0.00249257
-0.0021647
-0.00261755
-0.00275465
-0.00249521
-8.41342e-05
-0.000650403
-0.00026483
-0.00135637
-0.000495552
-0.00170131
-0.000749155
-0.00185094
-0.00101517
-0.0019326
-0.00129203
-0.00200748
-0.00158098
-0.0020924
-0.0018837
-0.00218984
-0.0022019
-0.00229936
-0.00241972
-0.00253683
-8.71206e-05
-0.000563283
-0.000272265
-0.00117122
-0.000507167
-0.00146641
-0.000764424
-0.00159368
-0.00103384
-0.00166319
-0.00131406
-0.00172726
-0.00160641
-0.00180005
-0.00191264
-0.00188361
-0.00223446
-0.00197753
-0.00208094
-0.00257324
-8.96996e-05
-0.000473583
-0.000278668
-0.000982254
-0.000517159
-0.00122792
-0.000777556
-0.00133328
-0.00104989
-0.00139085
-0.00133301
-0.00144414
-0.00162828
-0.00150478
-0.00193748
-0.00157441
-0.00226237
-0.00165264
-0.0017389
-0.00260441
-9.18658e-05
-0.000381717
-0.000284035
-0.000790085
-0.000525528
-0.000986428
-0.000788557
-0.00107025
-0.00106335
-0.00111606
-0.00134889
-0.00115861
-0.00164659
-0.00120708
-0.00195825
-0.00126274
-0.00228565
-0.00132525
-0.00139422
-0.00263033
-9.36141e-05
-0.000288103
-0.00028836
-0.000595339
-0.000532271
-0.000742517
-0.000797428
-0.000805097
-0.00107422
-0.000839269
-0.00136172
-0.000871102
-0.00166139
-0.000907417
-0.00197501
-0.000949118
-0.00230434
-0.000995917
-0.00104754
-0.00265103
-9.49398e-05
-0.000193164
-0.000291637
-0.000398642
-0.000537382
-0.000496771
-0.000804163
-0.000538317
-0.00108249
-0.000560945
-0.00137152
-0.000582069
-0.00167272
-0.00060622
-0.00198785
-0.000633988
-0.00231861
-0.000665151
-0.000699481
-0.00266667
-9.58385e-05
-9.7325e-05
-0.000293858
-0.000200623
-0.000540854
-0.000249775
-0.000808752
-0.000270418
-0.00108815
-0.000281547
-0.00137828
-0.000291944
-0.0016806
-0.0003039
-0.00199686
-0.000317722
-0.00232869
-0.000333323
-0.000350499
-0.00267767
-9.6306e-05
-1.01898e-06
-0.000295016
-1.91238e-06
-0.000542672
-2.1201e-06
-0.000811174
-1.91492e-06
-0.00109117
-1.54781e-06
-0.00138194
-1.17853e-06
-0.00168497
-8.72797e-07
-0.00200203
-6.54841e-07
-0.00233482
-5.39615e-07
-5.56949e-07
-0.00268476
-9.63386e-05
9.53196e-05
-0.000295103
0.000196852
-0.000542822
0.000245599
-0.000811403
0.000266666
-0.0010915
0.000278554
-0.00138241
0.000289729
-0.00168565
0.000302361
-0.00200303
0.000316733
-0.00233634
0.000332763
0.000350396
-0.00268729
-9.59338e-05
0.000191253
-0.000294111
0.000395028
-0.000541291
0.00049278
-0.000809413
0.000534787
-0.0010891
0.000558237
-0.0013796
0.000580231
-0.00168242
0.000605186
-0.00199938
0.000633686
-0.00233216
0.000665547
0.000700579
-0.00268234
-9.50907e-05
0.000286344
-0.000292036
0.000591974
-0.000538072
0.000738816
-0.000805191
0.000801906
-0.00108393
0.000836976
-0.00137348
0.000869778
-0.0016753
0.000907007
-0.00199116
0.000949546
-0.00232272
0.000997108
0.00104938
-0.00267151
-9.38099e-05
0.000380154
-0.000288879
0.000787043
-0.000533161
0.000983097
-0.000798735
0.00106748
-0.00107601
0.00111425
-0.00136407
0.00115784
-0.00166433
0.00120727
-0.00197854
0.00126376
-0.00230837
0.00132693
0.00139634
-0.00265533
-9.2094e-05
0.000472248
-0.000284641
0.00097959
-0.00052656
0.00122502
-0.000790049
0.00133097
-0.00106534
0.00138954
-0.0013514
0.00144389
-0.00164959
0.00150546
-0.00196165
0.00157581
-0.00228924
0.00165452
0.00174098
-0.00263388
-8.99472e-05
0.000562195
-0.000279328
0.00116897
-0.000518275
0.00146396
-0.000779142
0.00159184
-0.00105196
0.00166236
-0.00133552
0.00172745
-0.00163114
0.00180109
-0.00194055
0.00188522
-0.00226543
0.0019794
0.00208279
-0.00260724
-8.73751e-05
0.00064957
-0.000272947
0.00135454
-0.000508313
0.00169933
-0.000766027
0.00184955
-0.00103587
0.0019322
-0.00131645
0.00200804
-0.00160903
0.00209367
-0.0019153
0.00219149
-0.00223697
0.00230108
0.00242127
-0.00257545
-8.43847e-05
0.000733955
-0.000265507
0.00153567
-0.000496684
0.00193051
-0.000750714
0.00210358
-0.0010171
0.00219858
-0.00129422
0.00228516
-0.00158328
0.00238272
-0.00188594
0.00249415
-0.00220392
0.00261906
0.00275589
-0.00253854
-8.09843e-05
0.000814939
-0.000257019
0.0017117
-0.000483398
0.00215688
-0.000733215
0.0023534
-0.000995658
0.00246102
-0.00126887
0.00255837
-0.00155394
0.00266779
-0.00185252
0.00279273
-0.00216631
0.00293285
0.00308612
-0.00249653
-7.71833e-05
0.000892122
-0.000247495
0.00188201
-0.000468463
0.00237785
-0.000713539
0.00259847
-0.000971568
0.00271905
-0.0012404
0.0028272
-0.00152102
0.00294841
-0.00181505
0.00308676
-0.00212417
0.00324197
0.00341144
-0.00244949
-7.29923e-05
0.000965115
-0.000236947
0.00204597
-0.00045189
0.0025928
-0.000691696
0.00283828
-0.000944839
0.00297219
-0.00120884
0.0030912
-0.00148455
0.00322412
-0.00177356
0.00337577
-0.00207754
0.00354595
0.00373137
-0.00239747
-6.84234e-05
0.00103354
-0.000225391
0.00220293
-0.00043369
0.0028011
-0.000667694
0.00307228
-0.00091548
0.00321998
-0.00117419
0.00334991
-0.00144455
0.00349448
-0.00172809
0.00365932
-0.00202649
0.00384434
0.00404545
-0.00234057
-6.34902e-05
0.00109703
-0.000212844
0.00235229
-0.000413873
0.00300212
-0.000641539
0.00329995
-0.000883501
0.00346194
-0.00113649
0.0036029
-0.00140104
0.00375903
-0.00167867
0.00393695
-0.00197106
0.00413673
0.00435328
-0.00227889
-5.82081e-05
0.00115524
-0.000199323
0.0024934
-0.000392453
0.00319526
-0.00061324
0.00352073
-0.000848911
0.00369761
-0.00109573
0.00384972
-0.00135404
0.00401733
-0.0016253
0.00420821
-0.00191131
0.00442274
0.00465456
-0.00221259
-5.25942e-05
0.00120783
-0.000184852
0.00262566
-0.000369445
0.00337985
-0.000582805
0.00373409
-0.000811718
0.00392653
-0.00105194
0.00408994
-0.00130356
0.00426895
-0.001568
0.00447266
-0.00184728
0.00470202
0.00494912
-0.00214184
-4.6668e-05
0.0012545
-0.000169457
0.00274845
-0.000344865
0.00355526
-0.000550242
0.00393947
-0.00077193
0.00414821
-0.00100513
0.00432314
-0.00124964
0.00451346
-0.00150677
0.00472978
-0.00177895
0.0049742
0.00523706
-0.00206689
-4.04512e-05
0.00129495
-0.000153167
0.00286117
-0.000318735
0.00372082
-0.000515564
0.0041363
-0.000729554
0.0043622
-0.000955311
0.00454889
-0.0011923
0.00475045
-0.00144154
0.00497902
-0.00170611
0.00523878
0.00551896
-0.001988
-3.39679e-05
0.00132892
-0.000136019
0.00296322
-0.00029108
0.00387589
-0.000478785
0.004324
-0.000684605
0.00456802
-0.000902508
0.0047668
-0.00113165
0.00497959
-0.00137255
0.00521992
-0.00162869
0.00549492
0.00579611
-0.00190584
-2.72451e-05
0.00135616
-0.000118054
0.00305403
-0.000261929
0.00401976
-0.000439924
0.004502
-0.000637091
0.00476519
-0.000846682
0.00497639
-0.00106756
0.00520047
-0.00129941
0.00545177
-0.00154424
0.00573974
0.0060716
-0.00181973
-2.03146e-05
0.00137648
-9.93187e-05
0.00313303
-0.000231316
0.00415176
-0.000399007
0.00466969
-0.000587054
0.00495324
-0.000787919
0.00517725
-0.00100038
0.00541293
-0.00122468
0.00567607
-0.00145795
0.00597301
0.00634977
-0.00173611
-1.32212e-05
0.0013897
-7.9862e-05
0.00319967
-0.000199279
0.00427118
-0.000356065
0.00482648
-0.000534521
0.00513169
-0.000726213
0.00536895
-0.000929362
0.00561608
-0.0011452
0.00589191
-0.00137429
0.0062021
0.00657357
-0.00159809
-6.06811e-06
0.00139577
-5.97094e-05
0.00325331
-0.000165863
0.00437733
-0.000311137
0.00497175
-0.000479509
0.00530007
-0.000661622
0.00555106
-0.000854842
0.0058093
-0.00105992
0.00609698
-0.00127651
0.0064187
0.00680005
-0.001503
8.82207e-07
0.00139488
-3.87965e-05
0.00329299
-0.000131137
0.00446967
-0.000264282
0.00510489
-0.00042207
0.00545785
-0.000594271
0.00572326
-0.000777406
0.00599244
-0.00097197
0.00629154
-0.00117935
0.00662608
0.00701761
-0.00139691
8.8498e-06
0.00138603
-1.67632e-05
0.0033186
-9.52123e-05
0.00454812
-0.000215561
0.00522524
-0.000362277
0.00560457
-0.000524278
0.00588526
-0.000697304
0.00616546
-0.000881566
0.00647581
-0.00107862
0.00682313
0.0072243
-0.0012853
1.61337e-05
0.0013699
5.83035e-06
0.00332891
-5.82608e-05
0.00461221
-0.000165025
0.00533201
-0.000300202
0.00573975
-0.000451694
0.00603675
-0.000614453
0.00632822
-0.000788282
0.00664964
-0.000974578
0.00700943
0.00742006
-0.00117034
2.29996e-05
0.0013469
2.60172e-05
0.00332589
-1.99124e-05
0.00465814
-0.000112806
0.0054249
-0.000235921
0.00586286
-0.000376539
0.00617737
-0.000528782
0.00648047
-0.000691939
0.00681279
-0.000867247
0.00718473
0.00760521
-0.0010524
2.97557e-05
0.00131715
4.75477e-05
0.0033081
1.88449e-05
0.00468684
-5.92237e-05
0.00550297
-0.000169489
0.00597313
-0.000298856
0.00630674
-0.000440307
0.00662192
-0.00059255
0.00696504
-0.000756553
0.00734874
0.00777927
-0.000930605
3.63921e-05
0.00128075
6.9177e-05
0.00327531
5.74242e-05
0.0046986
-3.56832e-06
0.00556396
-0.000100967
0.00607053
-0.000218698
0.00642447
-0.000349072
0.00675229
-0.00049017
0.00710613
-0.000642581
0.00750115
0.00794151
-0.000804825
4.27428e-05
0.00123801
9.07044e-05
0.00322735
9.70199e-05
0.00469228
5.22179e-05
0.00560876
-3.06455e-05
0.00615339
-0.000136135
0.00652996
-0.000255135
0.00687129
-0.000384841
0.00723584
-0.000525455
0.00764176
0.00809148
-0.000675425
4.87144e-05
0.0011893
0.000111927
0.00316414
0.000136973
0.00466723
0.000109793
0.00563594
4.16726e-05
0.00622151
-5.13053e-05
0.00662294
-0.000158582
0.00697857
-0.000276614
0.00735387
-0.000405295
0.00777044
0.00822888
-0.000542697
5.42234e-05
0.00113507
0.000132596
0.00308577
0.00017697
0.00462286
0.000168308
0.00564461
0.00011577
0.00627405
3.5843e-05
0.00670286
-5.95911e-05
0.007074
-0.00016558
0.00745986
-0.000282228
0.00788709
0.00835352
-0.000406866
5.91808e-05
0.00107589
0.000152441
0.00299251
0.000216677
0.00455862
0.000227461
0.00563382
0.00019143
0.00631008
0.000125323
0.00676897
4.19831e-05
0.00715734
-5.2146e-05
0.00755399
-0.000156176
0.00799112
0.00846558
-0.000268236
6.35013e-05
0.00101239
0.000171188
0.00288482
0.000255714
0.0044741
0.000286927
0.00560261
0.000268385
0.00632862
0.000216731
0.00682062
0.00014627
0.0072278
6.4293e-05
0.00763597
-2.57997e-05
0.00808121
0.00856747
-0.000127692
6.7108e-05
0.000945283
0.000188553
0.00276337
0.000293657
0.00436899
0.000346299
0.00554997
0.000346337
0.00632859
0.000309924
0.00685704
0.000252612
0.00728512
0.000183199
0.00770538
0.000104051
0.00816036
0.0086591
1.24256e-05
6.99349e-05
0.000875348
0.00020424
0.00262907
0.000330031
0.0042432
0.000405092
0.00547491
0.00042491
0.00630877
0.000404652
0.00687729
0.000360989
0.00732878
0.000304197
0.00776217
0.00023841
0.00822615
0.00873217
0.000165341
7.19289e-05
0.000803419
0.000217927
0.00248307
0.000364308
0.00409682
0.000462734
0.00537648
0.000503643
0.00626786
0.000500612
0.00688032
0.000471264
0.00735813
0.000427566
0.00780587
0.000375146
0.00827857
0.00879165
0.000315662
7.30553e-05
0.000730364
0.000229316
0.00232681
0.000395912
0.00393023
0.000518566
0.00525382
0.000581971
0.00620445
0.000597415
0.00686488
0.00058317
0.00737237
0.000552923
0.00783611
0.00051358
0.00831791
0.00883779
0.000467441
7.32995e-05
0.000657064
0.000238138
0.00216197
0.000424228
0.00374414
0.000571825
0.00510623
0.000659209
0.00611707
0.000694559
0.00682953
0.000696345
0.00737059
0.000679936
0.00785252
0.000653717
0.00834413
0.00887067
0.000620838
7.26674e-05
0.000584397
0.000244155
0.00199048
0.000448612
0.00353968
0.000621646
0.00493319
0.000734537
0.00600418
0.000791423
0.00677264
0.00081038
0.00735163
0.000808359
0.00785455
0.000795465
0.00835703
0.00889037
0.000775764
7.11869e-05
0.00051321
0.000247185
0.00181448
0.00046841
0.00331846
0.000667064
0.00473454
0.000806982
0.00586426
0.000887247
0.00669238
0.000924784
0.00731409
0.000937914
0.00784141
0.000938651
0.00835629
0.00889689
0.000932131
6.89077e-05
0.000444302
0.000247116
0.00163628
0.000482993
0.00308258
0.000707026
0.00451051
0.00087541
0.00569588
0.000981096
0.00658669
0.00103893
0.00725626
0.00106824
0.00781211
0.00108305
0.00834147
0.00889013
0.00108981
6.59024e-05
0.0003784
0.000243927
0.00145825
0.000491794
0.00283471
0.000740413
0.00426189
0.000938511
0.00549778
0.00107183
0.00645338
0.00115202
0.00717606
0.00119884
0.00776529
0.00122838
0.00831192
0.00886984
0.00124867
6.22628e-05
0.000316137
0.000237703
0.00128281
0.000494362
0.00257805
0.000766084
0.00399016
0.000994807
0.00526906
0.00115806
0.00629012
0.00126303
0.00707109
0.00132908
0.00769924
0.00137427
0.00826673
0.00883561
0.0014085
5.80978e-05
0.000258039
0.000228634
0.00111228
0.000490415
0.00231627
0.000782927
0.00369765
0.00104266
0.00500932
0.00123816
0.00609463
0.00137067
0.00693858
0.00145813
0.00761178
0.00152024
0.00820462
0.00878687
0.00156898
5.3528e-05
0.000204511
0.000217018
0.000948786
0.000479895
0.0020534
0.000789946
0.0033876
0.00108034
0.00471893
0.00131019
0.00586478
0.00147333
0.00677544
0.00158488
0.00750023
0.00166562
0.00812388
0.0087228
0.00172969
4.868e-05
0.000155831
0.000203243
0.000794224
0.000463016
0.00179362
0.000786362
0.00306425
0.00110605
0.00439924
0.00137197
0.00559885
0.00156902
0.0065784
0.0017079
0.00736135
0.00180954
0.00802224
0.0086422
0.00189015
4.36797e-05
0.000112152
0.000187764
0.000650139
0.00044028
0.00154111
0.000771734
0.0027328
0.00111808
0.0040529
0.00142108
0.00529585
0.00165537
0.00634411
0.00182535
0.00719137
0.00195082
0.00789677
0.00854334
0.00204967
3.86451e-05
7.35064e-05
0.000171072
0.000517713
0.000412461
0.00129972
0.000746081
0.00239918
0.00111495
0.00368404
0.00145493
0.00495587
0.00172955
0.00606948
0.00193487
0.00698606
0.00208785
0.00774379
0.00842385
0.00220734
3.36798e-05
3.98267e-05
0.000153657
0.000397735
0.000380557
0.00107282
0.000709974
0.00206976
0.00109561
0.0032984
0.00147092
0.00458055
0.00178836
0.00575204
0.00203354
0.00674088
0.0022185
0.00755883
0.00828046
0.00236188
2.88676e-05
1.09591e-05
0.000135978
0.000290625
0.000345706
0.000863089
0.000664574
0.00175089
0.00105968
0.0029033
0.0014667
0.00417353
0.00182826
0.00539047
0.00211781
0.00645133
0.00233997
0.00733667
0.00810892
0.00251152
2.42703e-05
-1.33112e-05
0.000118438
0.000196457
0.000309086
0.000672442
0.000611579
0.0014484
0.00100766
0.00250721
0.00144041
0.00374079
0.00184561
0.00498527
0.00218351
0.00611344
0.00244866
0.00707151
0.00790377
0.00265382
1.99293e-05
-3.32405e-05
0.000101376
0.00011501
0.000271826
0.000501991
0.000553081
0.00116715
0.000941109
0.00211918
0.00139115
0.00329075
0.00183696
0.00453946
0.00222595
0.00572444
0.00254008
1.58737e-05
-4.91142e-05
8.50735e-05
4.58106e-05
0.000234958
0.000352107
0.00049138
0.000910725
0.000862609
0.00174796
0.00131933
0.00283402
0.00179952
0.00405927
0.00528376
1.21324e-05
-6.12466e-05
6.97833e-05
-1.18402e-05
0.000199406
0.000222484
0.000428801
0.00068133
0.000775637
0.00140112
0.0012271
0.00238257
0.00173186
0.0035545
8.74829e-06
-6.99949e-05
5.57633e-05
-5.88553e-05
0.00016603
0.000112218
0.000367577
0.000479783
0.000684248
0.00108445
0.00111839
0.00194843
5.78951e-06
-7.57844e-05
4.33074e-05
-9.63731e-05
0.000135669
1.98557e-05
0.000309818
0.000305634
0.000592744
0.000801523
3.35146e-06
-7.91359e-05
3.2753e-05
-0.000125775
0.000109172
-5.6563e-05
0.000257506
0.0001573
1.54691e-06
-8.06828e-05
2.44493e-05
-0.000148677
8.73506e-05
-0.000119464
3.21927e-05
4.83835e-07
-8.11666e-05
1.86874e-05
-0.000166881
7.08718e-05
-0.000171649
1.95411e-07
-8.13621e-05
1.56068e-05
-0.000182292
6.19511e-07
-8.19816e-05
-0.000196788
1.72946e-06
-8.3711e-05
-8.70426e-05
0.00703962
0.00102889
-0.0069788
0.0070994
0.00118878
0.00715803
0.00134975
0.00721536
0.00151151
0.00727116
0.00167374
0.00732504
0.0018361
0.00737634
0.00199817
0.00742403
0.00215942
0.0074665
0.00231915
0.00750134
0.00247639
0.00262975
0.00719623
0.000968632
-0.00713597
0.0072564
0.00112861
0.00731649
0.00128966
0.00737647
0.00145153
0.00743626
0.00161395
0.00749568
0.00177667
0.00755448
0.00193938
0.00761217
0.00210173
0.00766802
0.0022633
0.00772086
0.00242355
0.00258169
0.00736268
0.000911075
-0.00730512
0.00742103
0.00107026
0.00748024
0.00123044
0.00754037
0.0013914
0.00760143
0.00155289
0.00766339
0.00171471
0.00772617
0.0018766
0.00778959
0.00203831
0.00785336
0.00219953
0.00791702
0.00235989
0.00251894
0.00754139
0.000856413
-0.00748673
0.00759731
0.00101434
0.00765463
0.00117312
0.00771348
0.00133255
0.00777395
0.00149242
0.00783615
0.00165251
0.00790011
0.00181264
0.00796587
0.00197256
0.00803334
0.00213206
0.00810241
0.00229083
0.00244869
0.00773153
0.000804407
-0.00767953
0.00778512
0.00096075
0.00784043
0.00111781
0.00789759
0.00127539
0.00795675
0.00143326
0.00801803
0.00159124
0.00808155
0.00174912
0.0081474
0.00190671
0.00821562
0.00206384
0.00828621
0.00222024
0.00237589
0.00793111
0.000754775
-0.00788148
0.00798258
0.000909276
0.00803602
0.00106438
0.00809152
0.00121988
0.00814922
0.00137556
0.00820923
0.00153123
0.00827167
0.00168668
0.00833664
0.00184173
0.00840425
0.00199623
0.00847459
0.0021499
0.00230276
0.00813905
0.000707353
-0.00809163
0.00818853
0.000859794
0.00824017
0.00101274
0.00829407
0.00116598
0.00835032
0.00131931
0.00840903
0.00147252
0.00847029
0.00162542
0.00853422
0.0017778
0.00860095
0.0019295
0.00867057
0.00208028
0.00223007
0.00835516
0.000662173
-0.00830998
0.00840263
0.000812333
0.00845245
0.000962921
0.00850471
0.00111372
0.0085595
0.00126452
0.00861689
0.00141512
0.00867698
0.00156533
0.00873984
0.00171493
0.00880558
0.00186376
0.00887427
0.00201158
0.0021583
0.008579
0.000619179
-0.00853601
0.00862447
0.00076687
0.00867247
0.000914917
0.00872308
0.0010631
0.00877638
0.00121123
0.00883241
0.00135909
0.00889126
0.00150649
0.00895297
0.00165322
0.00901762
0.00179911
0.00908527
0.00194394
0.00208757
0.00881059
0.000578339
-0.00876975
0.00885406
0.000723401
0.00890023
0.000868747
0.00894916
0.00101418
0.0090009
0.00115949
0.00905551
0.00130448
0.00911304
0.00144896
0.00917353
0.00159273
0.00923705
0.00173559
0.00930364
0.00187735
0.00201783
0.00904955
0.000539518
-0.00901073
0.00909114
0.000681814
0.00913554
0.000824344
0.00918282
0.000966901
0.00923302
0.00110929
0.00928619
0.00125131
0.00934237
0.00139277
0.00940162
0.00153348
0.00946398
0.00167323
0.00952948
0.00181184
0.00194913