/*--------------------------------*- C++ -*----------------------------------*\
  =========                 |
  \\      /  F ield         | OpenFOAM: The Open Source CFD Toolbox
   \\    /   O peration     | Website:  https://openfoam.org
    \\  /    A nd           | Version:  7
     \\/     M anipulation  |
\*---------------------------------------------------------------------------*/
FoamFile
{
    version     2.0;
    format      ascii;
    class       volScalarField;
    location    "20";
    object      p;
}
// * * * * * * * * * * * * * * * * * * * * * * * * * * * * * * * * * * * * * //

dimensions      [0 2 -2 0 0 0 0];

internalField   nonuniform List<scalar> 
16660
(
-0.0769117
-0.0804092
-0.0811739
-0.0825653
-0.0837033
-0.0849667
-0.0862135
-0.0874302
-0.0885723
-0.0895658
-0.0904618
-0.0910176
-0.0917698
-0.0915573
-0.0770522
-0.0805212
-0.0812801
-0.0826629
-0.0837958
-0.0850549
-0.0862989
-0.0875133
-0.0886554
-0.0896448
-0.0905477
-0.0910779
-0.0918643
-0.0915202
-0.0773307
-0.0807433
-0.0814904
-0.0828558
-0.0839782
-0.0852285
-0.0864665
-0.0876758
-0.0888173
-0.0897973
-0.090715
-0.0911896
-0.0920513
-0.0914374
-0.0777429
-0.0810722
-0.0818014
-0.0831403
-0.0842464
-0.0854829
-0.0867112
-0.087912
-0.0890522
-0.0900159
-0.0909597
-0.0913404
-0.0923347
-0.091302
-0.0782833
-0.0815037
-0.0822083
-0.0835112
-0.0845945
-0.0858112
-0.0870255
-0.0882135
-0.0893518
-0.0902898
-0.0912763
-0.0915126
-0.0927208
-0.0911033
-0.0789441
-0.0820319
-0.0827047
-0.0839617
-0.0850148
-0.0862051
-0.0874
-0.0885697
-0.0897052
-0.0906048
-0.0916585
-0.0916823
-0.0932182
-0.0908271
-0.0797167
-0.0826501
-0.0832835
-0.0844837
-0.0854982
-0.0866542
-0.0878234
-0.0889679
-0.0901
-0.0909436
-0.0920996
-0.0918202
-0.093837
-0.0904546
-0.080591
-0.0833509
-0.0839364
-0.0850682
-0.0860344
-0.087147
-0.0882829
-0.0893939
-0.0905223
-0.0912861
-0.0925928
-0.0918936
-0.0945882
-0.0899542
-0.0815565
-0.0841263
-0.0846544
-0.0857056
-0.0866125
-0.0876711
-0.0887649
-0.0898321
-0.0909572
-0.0916105
-0.0931294
-0.0918667
-0.0954876
-0.0892658
-0.0826022
-0.0849681
-0.0854286
-0.0863858
-0.0872209
-0.0882135
-0.0892553
-0.0902666
-0.0913895
-0.0918938
-0.0937022
-0.0916944
-0.0965445
-0.0883586
-0.0837172
-0.085868
-0.0862499
-0.0870986
-0.0878481
-0.0887613
-0.0897396
-0.0906814
-0.0918035
-0.0921133
-0.0943178
-0.0913418
-0.0976433
-0.0875164
-0.0848911
-0.0868185
-0.0871095
-0.0878344
-0.0884829
-0.0893019
-0.0902043
-0.0910614
-0.0921848
-0.0922469
-0.0949614
-0.0909412
-0.0984288
-0.0867631
-0.0861141
-0.0878122
-0.0879993
-0.088584
-0.0891149
-0.0898236
-0.0906363
-0.0913925
-0.0925193
-0.092302
-0.095349
-0.0906629
-0.0991581
-0.0858427
-0.0873779
-0.0888431
-0.0889121
-0.0893392
-0.0897346
-0.090316
-0.0910245
-0.0916626
-0.0927751
-0.0923669
-0.0956178
-0.0901912
-0.0999027
-0.0847809
-0.0886757
-0.0899061
-0.0898419
-0.0900932
-0.0903343
-0.0907704
-0.0913598
-0.0918723
-0.0929244
-0.092342
-0.0958475
-0.0895214
-0.100577
-0.0836515
-0.0900024
-0.0909973
-0.0907842
-0.0908408
-0.0909079
-0.0911804
-0.0916329
-0.0920131
-0.0929882
-0.0922009
-0.0959861
-0.0887255
-0.101065
-0.0825558
-0.0913554
-0.0921148
-0.091736
-0.0915785
-0.0914514
-0.0915426
-0.0918411
-0.092076
-0.092964
-0.0919645
-0.0959759
-0.0878682
-0.101224
-0.0816272
-0.0927341
-0.0932579
-0.0926963
-0.0923047
-0.0919633
-0.0918552
-0.0919844
-0.0920629
-0.092843
-0.091655
-0.0957689
-0.0870295
-0.100882
-0.0809839
-0.0941409
-0.094428
-0.0936658
-0.09302
-0.0924448
-0.0921201
-0.0920649
-0.0919799
-0.092622
-0.0912905
-0.0953225
-0.0862877
-0.0998741
-0.0806442
-0.0955806
-0.0956285
-0.0946472
-0.0937276
-0.0928994
-0.0923421
-0.092088
-0.0918353
-0.0923039
-0.0908815
-0.0946072
-0.0856865
-0.0981084
-0.0804603
-0.097061
-0.0968653
-0.0956451
-0.0944326
-0.0933335
-0.0925291
-0.0920623
-0.0916387
-0.091897
-0.0904254
-0.0936161
-0.0852021
-0.0956272
-0.0801419
-0.0985925
-0.0981445
-0.0966672
-0.0951426
-0.0937565
-0.0926918
-0.0919994
-0.0914
-0.091414
-0.0899046
-0.0923658
-0.0847329
-0.0926031
-0.079379
-0.100188
-0.0994688
-0.0977283
-0.0958678
-0.0941799
-0.0928436
-0.0919131
-0.0911278
-0.090868
-0.0892936
-0.0908855
-0.0841265
-0.0892602
-0.0779738
-0.101863
-0.100857
-0.0988328
-0.0966201
-0.0946177
-0.0929997
-0.0918185
-0.0908285
-0.0902666
-0.088567
-0.0892018
-0.0832333
-0.0857714
-0.0758868
-0.103637
-0.10232
-0.0999941
-0.0974137
-0.095086
-0.0931764
-0.0917306
-0.0905071
-0.0896074
-0.0877035
-0.0873273
-0.0819519
-0.0821969
-0.0732032
-0.105528
-0.10387
-0.101228
-0.0982643
-0.0956019
-0.0933905
-0.0916621
-0.0901662
-0.088879
-0.0866838
-0.085262
-0.0802391
-0.0784772
-0.0701034
-0.10756
-0.105522
-0.10255
-0.0991888
-0.0961832
-0.0936575
-0.0916225
-0.0898062
-0.0880664
-0.0854862
-0.0830059
-0.0780912
-0.0744888
-0.0668641
-0.109757
-0.107291
-0.103977
-0.100205
-0.0968476
-0.0939906
-0.0916163
-0.0894239
-0.0871549
-0.0840868
-0.0805664
-0.0755183
-0.0702225
-0.0637295
-0.112136
-0.109196
-0.105527
-0.10133
-0.0976115
-0.0943998
-0.0916444
-0.0890124
-0.0861308
-0.082464
-0.0779501
-0.0725386
-0.0659888
-0.0604291
-0.114713
-0.111261
-0.107218
-0.102583
-0.0984889
-0.094891
-0.0917049
-0.0885605
-0.0849791
-0.080606
-0.0751521
-0.0692009
-0.0619686
-0.0560754
-0.117518
-0.113495
-0.109067
-0.103979
-0.0994907
-0.095467
-0.0917941
-0.0880525
-0.0836832
-0.0785108
-0.0721673
-0.065626
-0.0578223
-0.0515339
-0.120574
-0.115917
-0.111094
-0.105535
-0.100624
-0.0961288
-0.0919052
-0.0874674
-0.0822262
-0.0761851
-0.0690073
-0.0618505
-0.0536042
-0.0469408
-0.123902
-0.118542
-0.113315
-0.107262
-0.101893
-0.0968766
-0.0920257
-0.0867811
-0.0805941
-0.0736434
-0.065681
-0.0579284
-0.049299
-0.0422915
-0.127519
-0.121388
-0.115749
-0.109171
-0.103301
-0.0977087
-0.092135
-0.0859689
-0.0787779
-0.0709024
-0.062204
-0.053888
-0.0449134
-0.0376203
-0.131443
-0.124472
-0.11841
-0.111267
-0.104849
-0.0986179
-0.0922053
-0.0850083
-0.0767738
-0.0679793
-0.0585908
-0.0497488
-0.0404575
-0.0329098
-0.13569
-0.12781
-0.121312
-0.113555
-0.106542
-0.0995878
-0.0922036
-0.0838812
-0.0745823
-0.0648895
-0.054854
-0.0455218
-0.0359346
-0.0281593
-0.140272
-0.131418
-0.124466
-0.116036
-0.10838
-0.100591
-0.0920966
-0.0825741
-0.0722066
-0.0616454
-0.0510029
-0.0412117
-0.0313472
-0.0233593
-0.1452
-0.135309
-0.127878
-0.118713
-0.110358
-0.101589
-0.091853
-0.0810776
-0.0696506
-0.0582562
-0.0470431
-0.0368194
-0.0266935
-0.0185029
-0.150481
-0.139498
-0.131549
-0.121593
-0.112457
-0.102541
-0.0914452
-0.0793847
-0.0669178
-0.0547275
-0.0429766
-0.0323424
-0.02197
-0.0135825
-0.156121
-0.143992
-0.135478
-0.124678
-0.114643
-0.103402
-0.0908496
-0.0774904
-0.0640102
-0.0510616
-0.0388018
-0.0277762
-0.0171712
-0.00859064
-0.162121
-0.148798
-0.13966
-0.127965
-0.116868
-0.104128
-0.090046
-0.0753898
-0.0609279
-0.0472574
-0.0345149
-0.0231146
-0.0122905
-0.00352016
-0.168477
-0.153911
-0.144091
-0.131441
-0.119078
-0.104681
-0.0890164
-0.0730775
-0.0576686
-0.0433113
-0.0301096
-0.0183503
-0.0073209
0.00163614
-0.175181
-0.159322
-0.148765
-0.135071
-0.12121
-0.105022
-0.0877447
-0.0705471
-0.0542277
-0.0392171
-0.025578
-0.0134752
-0.00225459
0.00688528
-0.182219
-0.165011
-0.153674
-0.138804
-0.123206
-0.105117
-0.086215
-0.0677908
-0.0505982
-0.034967
-0.0209112
-0.00848088
0.00291623
0.0122341
-0.189567
-0.170951
-0.158802
-0.14257
-0.125007
-0.104933
-0.0844119
-0.0647991
-0.0467715
-0.0305512
-0.0160993
-0.00335859
0.00819941
0.0176891
-0.197193
-0.177108
-0.164122
-0.146289
-0.126555
-0.10444
-0.0823192
-0.0615607
-0.042737
-0.0259592
-0.0111319
0.00190044
0.0136027
0.0232567
-0.205053
-0.183442
-0.169588
-0.149872
-0.127797
-0.103607
-0.07992
-0.058063
-0.0384828
-0.0211792
-0.00599854
0.00730488
0.0191339
0.0289428
-0.213087
-0.189908
-0.175133
-0.153232
-0.128678
-0.102406
-0.077197
-0.0542918
-0.0339959
-0.0161994
-0.00068845
0.0128632
0.0248001
0.0347531
-0.221225
-0.196455
-0.180667
-0.156284
-0.129147
-0.10081
-0.0741316
-0.0502319
-0.0292627
-0.0110074
0.00480879
0.0185837
0.0306086
0.0406929
-0.229381
-0.203026
-0.186083
-0.158944
-0.129155
-0.0987892
-0.0707047
-0.0458673
-0.0242691
-0.00559073
0.0105034
0.0244742
0.0365659
0.046767
-0.237458
-0.209555
-0.191255
-0.161133
-0.128655
-0.0963169
-0.0668966
-0.0411813
-0.0190007
6.26608e-05
0.0164051
0.0305422
0.0426783
0.0529796
-0.245348
-0.215965
-0.196054
-0.162775
-0.127602
-0.0933654
-0.0626872
-0.0361573
-0.0134434
0.00596461
0.0225231
0.0367945
0.0489516
0.0593345
-0.252937
-0.222168
-0.200346
-0.163797
-0.125953
-0.0899078
-0.0580562
-0.0307783
-0.00758324
0.0121264
0.028866
0.0432378
0.0553911
0.0658348
-0.260104
-0.228064
-0.204
-0.164129
-0.12367
-0.0859181
-0.0529837
-0.025028
-0.00140703
0.0185585
0.0354417
0.0498776
0.0620016
0.0724831
-0.266728
-0.23354
-0.206897
-0.163704
-0.120715
-0.081371
-0.0474503
-0.0188907
0.00509777
0.0252707
0.0422571
0.0567194
0.0687873
0.0792809
-0.272685
-0.238473
-0.208924
-0.16246
-0.117054
-0.0762428
-0.0414374
-0.0123516
0.0119427
0.0322718
0.0493185
0.0637675
0.0757516
0.0862287
-0.277855
-0.242731
-0.209982
-0.16034
-0.112655
-0.0705113
-0.0349274
-0.00539692
0.0191382
0.0395695
0.0566311
0.0710259
0.0828965
0.0933251
-0.28212
-0.246178
-0.209983
-0.157292
-0.107489
-0.0641562
-0.0279044
0.00198571
0.0266934
0.0471703
0.0641993
0.0784979
0.0902226
0.100567
-0.285366
-0.248679
-0.208852
-0.153272
-0.101531
-0.0571592
-0.0203541
0.00980712
0.0346162
0.0550794
0.0720262
0.0861856
0.0977301
0.107949
-0.287483
-0.250099
-0.206524
-0.148239
-0.094758
-0.0495043
-0.012264
0.0180764
0.0429126
0.0633006
0.0801134
0.0940898
0.10542
0.115475
-0.28837
-0.250313
-0.202944
-0.142164
-0.0871514
-0.041178
-0.00362398
0.0268006
0.051587
0.0718364
0.0884624
0.10221
0.113292
0.123173
-0.287929
-0.249205
-0.198067
-0.135021
-0.0786956
-0.0321696
0.00557374
0.0359844
0.0606421
0.0806886
0.0970755
0.110548
0.121333
0.131089
-0.286073
-0.246674
-0.191854
-0.12679
-0.0693793
-0.0224712
0.015334
0.0456308
0.0700795
0.089858
0.105955
0.11911
0.129524
0.13922
-0.282721
-0.242633
-0.184274
-0.117459
-0.059195
-0.0120785
0.0256592
0.0557412
0.0799004
0.0993427
0.115095
0.127891
0.137884
0.147416
-0.2778
-0.23701
-0.175305
-0.107022
-0.0481396
-0.000990244
0.0365503
0.0663176
0.0901035
0.109136
0.124482
0.136832
0.146479
0.155692
-0.271248
-0.229749
-0.164936
-0.0954763
-0.0362143
0.0107931
0.0480092
0.0773588
0.100678
0.119224
0.134109
0.145966
0.155256
0.164078
-0.263011
-0.220807
-0.15316
-0.0828285
-0.0234249
0.0232706
0.0600365
0.0888503
0.111599
0.129612
0.143972
0.155297
0.164188
0.172583
-0.253045
-0.210158
-0.139984
-0.0690889
-0.00977891
0.0364375
0.0726175
0.100757
0.122886
0.140291
0.154066
0.164816
0.173263
0.181204
-0.241319
-0.197789
-0.125419
-0.0542718
0.00471774
0.0502739
0.0857051
0.113107
0.134523
0.15125
0.16438
0.174515
0.182474
0.189932
-0.227811
-0.183702
-0.109486
-0.0383954
0.0200586
0.0647347
0.0993117
0.12588
0.146495
0.162474
0.174903
0.184381
0.191813
0.198756
-0.21251
-0.167912
-0.0922108
-0.0214859
0.0362138
0.0798078
0.113425
0.139057
0.158787
0.173951
0.185623
0.194402
0.201271
0.207663
-0.195421
-0.150446
-0.0736292
-0.00357992
0.053099
0.0955267
0.128024
0.152617
0.171382
0.185665
0.196527
0.204565
0.210837
0.216643
-0.176556
-0.131342
-0.0537843
0.0152826
0.0707185
0.111836
0.143085
0.166539
0.184262
0.1976
0.207598
0.214858
0.2205
0.22568
-0.155942
-0.11065
-0.0327229
0.0350576
0.0890465
0.1287
0.158583
0.1808
0.197406
0.209737
0.218821
0.225266
0.230245
0.234761
-0.133622
-0.0884476
-0.0104763
0.0557047
0.108045
0.146085
0.174487
0.195376
0.210791
0.222056
0.230178
0.235773
0.240058
0.243869
-0.109651
-0.0648603
0.0129543
0.0771888
0.12767
0.163953
0.190765
0.210238
0.224394
0.234537
0.24165
0.246363
0.249923
0.252981
-0.084099
-0.0400083
0.0375419
0.0994703
0.147872
0.182264
0.207383
0.225358
0.238189
0.247156
0.253218
0.25702
0.259819
0.262076
-0.0570365
-0.013821
0.0630547
0.12248
0.1686
0.200974
0.224304
0.240704
0.25215
0.259892
0.264862
0.267726
0.269732
0.271127
-0.0285449
0.0138671
0.0891587
0.146125
0.189801
0.220037
0.24149
0.256243
0.266249
0.272717
0.276559
0.278465
0.279648
0.280117
0.00126519
0.0427731
0.115952
0.170324
0.211418
0.239407
0.258899
0.271941
0.280454
0.285608
0.288286
0.289224
0.289557
0.289021
0.0322979
0.0727382
0.143416
0.195001
0.233391
0.259032
0.27649
0.287762
0.294737
0.298535
0.300025
0.299992
0.299433
0.297732
0.0645481
0.103502
0.17148
0.220082
0.255658
0.278862
0.294217
0.303668
0.309063
0.311472
0.31176
0.310765
0.309202
0.305969
0.0977949
0.134996
0.200053
0.245493
0.278153
0.298842
0.312036
0.319621
0.323401
0.324394
0.32348
0.321524
0.318748
0.313519
0.131898
0.167118
0.229037
0.271155
0.30081
0.318916
0.329899
0.335581
0.337715
0.337274
0.335166
0.332213
0.328
0.32093
0.166722
0.199748
0.258329
0.296987
0.323561
0.339027
0.347759
0.351506
0.351972
0.350087
0.346782
0.342744
0.336967
0.329625
0.202125
0.23276
0.287825
0.322907
0.346337
0.359118
0.365566
0.367355
0.366136
0.362803
0.358285
0.353086
0.345995
0.338643
0.237955
0.266023
0.317416
0.348829
0.369065
0.379129
0.38327
0.383087
0.380174
0.375392
0.369642
0.363263
0.355076
0.347544
0.274062
0.299403
0.346994
0.374666
0.391676
0.399
0.400822
0.398657
0.394049
0.387819
0.380825
0.373278
0.364136
0.35627
0.310289
0.332767
0.376451
0.400332
0.414095
0.418671
0.41817
0.414025
0.407725
0.400052
0.391812
0.383122
0.373096
0.364756
0.346481
0.365981
0.405676
0.425739
0.436251
0.438081
0.435263
0.429146
0.421166
0.41206
0.402578
0.392775
0.381905
0.372994
0.38248
0.398908
0.434561
0.450799
0.458072
0.45717
0.45205
0.443979
0.434335
0.423811
0.413099
0.402213
0.39052
0.380976
0.418131
0.431415
0.462999
0.475425
0.479484
0.475877
0.468483
0.458481
0.447197
0.435274
0.423352
0.411411
0.398913
0.388696
0.453279
0.463367
0.490883
0.499531
0.500417
0.494144
0.484509
0.472609
0.459714
0.446419
0.43331
0.420343
0.407058
0.396144
0.487769
0.494635
0.518108
0.523032
0.520801
0.511911
0.500081
0.486323
0.471853
0.457215
0.442948
0.428987
0.414933
0.403312
0.521451
0.52509
0.544572
0.545844
0.540567
0.529122
0.51515
0.499582
0.483579
0.467635
0.452242
0.437318
0.422517
0.410188
0.554175
0.554608
0.570174
0.567887
0.559646
0.54572
0.52967
0.512346
0.494858
0.47765
0.461168
0.445316
0.429793
0.41676
0.585799
0.58307
0.594819
0.589081
0.577975
0.561651
0.543595
0.524577
0.505657
0.487232
0.469702
0.45296
0.436742
0.423016
0.616182
0.610359
0.618412
0.609351
0.59549
0.576863
0.556881
0.536239
0.515947
0.496354
0.477821
0.460229
0.443348
0.428945
0.645192
0.636365
0.640866
0.628624
0.612131
0.591305
0.569485
0.547295
0.525696
0.504992
0.485503
0.467105
0.449593
0.434535
0.6727
0.660982
0.662093
0.64683
0.62784
0.604929
0.581368
0.557712
0.534875
0.51312
0.492729
0.47357
0.455463
0.439774
0.698586
0.68411
0.682015
0.663904
0.642563
0.61769
0.592492
0.567458
0.543459
0.520716
0.499477
0.479607
0.460942
0.444653
0.722735
0.705656
0.700555
0.679783
0.656249
0.629546
0.602821
0.576502
0.551421
0.527758
0.505731
0.4852
0.466017
0.449162
0.745041
0.725532
0.717644
0.69441
0.668849
0.640456
0.612321
0.584817
0.558737
0.534227
0.511472
0.490334
0.470673
0.45329
0.765407
0.743658
0.733215
0.707733
0.68032
0.650383
0.620963
0.592377
0.565386
0.540103
0.516685
0.494994
0.4749
0.457029
0.783743
0.75996
0.747211
0.719701
0.690621
0.659295
0.628717
0.599159
0.571348
0.545369
0.521356
0.49917
0.478686
0.460373
0.799969
0.774373
0.759577
0.730272
0.699717
0.667161
0.635559
0.60514
0.576605
0.550012
0.525472
0.502848
0.482021
0.463313
0.814013
0.786838
0.770267
0.739407
0.707574
0.673955
0.641466
0.610303
0.581142
0.554016
0.529021
0.50602
0.484896
0.465844
0.825813
0.797306
0.77924
0.747073
0.714167
0.679654
0.64642
0.614631
0.584944
0.557371
0.531994
0.508676
0.487303
0.467961
0.835319
0.805733
0.786462
0.753241
0.71947
0.684237
0.650404
0.618111
0.588
0.560068
0.534383
0.51081
0.489237
0.469659
0.842488
0.812086
0.791904
0.757889
0.723466
0.68769
0.653404
0.620732
0.590301
0.562097
0.53618
0.512416
0.490691
0.470934
0.847289
0.816339
0.795548
0.761
0.72614
0.69
0.655412
0.622485
0.591839
0.563454
0.537382
0.513489
0.491663
0.471785
0.8497
0.818475
0.797377
0.762562
0.727483
0.69116
0.656419
0.623364
0.592611
0.564135
0.537985
0.514028
0.492153
0.472226
0.849712
0.818485
0.797386
0.762569
0.727489
0.691165
0.656423
0.623367
0.592613
0.564137
0.537986
0.51403
0.492155
0.472232
0.847323
0.816369
0.795573
0.761022
0.726158
0.690014
0.655423
0.622493
0.591846
0.563459
0.537385
0.513491
0.491665
0.471787
0.842544
0.812135
0.791947
0.757925
0.723495
0.687713
0.653422
0.620745
0.59031
0.562103
0.536183
0.512417
0.490691
0.470931
0.835397
0.8058
0.78652
0.75329
0.71951
0.684268
0.650428
0.618128
0.588011
0.560074
0.534385
0.51081
0.489234
0.469652
0.825911
0.79739
0.779313
0.747133
0.714216
0.679692
0.646449
0.614651
0.584956
0.557377
0.531995
0.508675
0.487298
0.46795
0.814129
0.786939
0.770353
0.739478
0.707631
0.673999
0.641498
0.610324
0.581154
0.554021
0.529021
0.506016
0.484889
0.465829
0.800102
0.774488
0.759675
0.730352
0.69978
0.66721
0.635593
0.605162
0.576617
0.550015
0.52547
0.502843
0.482013
0.463295
0.783891
0.760087
0.747319
0.719789
0.69069
0.659347
0.628753
0.599181
0.571359
0.545372
0.521353
0.499164
0.478677
0.460352
0.765568
0.743796
0.733332
0.707826
0.680393
0.650437
0.620999
0.592399
0.565396
0.540104
0.516681
0.494988
0.474891
0.457007
0.745212
0.725679
0.717768
0.694509
0.668925
0.64051
0.612358
0.584839
0.558746
0.534227
0.511467
0.490327
0.470664
0.453265
0.722914
0.70581
0.700685
0.679885
0.656327
0.629601
0.602857
0.576523
0.551429
0.527759
0.505726
0.485194
0.466008
0.449135
0.698771
0.68427
0.682148
0.664008
0.642642
0.617746
0.592528
0.567478
0.543467
0.520716
0.499473
0.479602
0.460934
0.444626
0.672889
0.661146
0.662229
0.646936
0.627919
0.604984
0.581404
0.557732
0.534884
0.513121
0.492725
0.473567
0.455456
0.439746
0.645383
0.636531
0.641002
0.62873
0.61221
0.591359
0.56952
0.547315
0.525704
0.504993
0.485501
0.467103
0.449588
0.434505
0.616373
0.610525
0.618549
0.609457
0.595568
0.576917
0.556915
0.536259
0.515956
0.496357
0.47782
0.460229
0.443344
0.428914
0.585987
0.583235
0.594954
0.589185
0.578052
0.561704
0.543629
0.524598
0.505668
0.487236
0.469702
0.452961
0.436741
0.422985
0.55436
0.55477
0.570308
0.567989
0.559722
0.545773
0.529704
0.512367
0.494869
0.477656
0.46117
0.44532
0.429794
0.416728
0.521631
0.525248
0.544702
0.545944
0.54064
0.529174
0.515185
0.499603
0.483592
0.467643
0.452246
0.437324
0.42252
0.410156
0.487943
0.494789
0.518235
0.523129
0.520873
0.511962
0.500116
0.486345
0.471868
0.457225
0.442954
0.428994
0.414938
0.403281
0.453446
0.463516
0.491006
0.499626
0.500488
0.494194
0.484544
0.472633
0.459731
0.44643
0.433318
0.420353
0.407066
0.396114
0.41829
0.431558
0.463118
0.475517
0.479553
0.475927
0.468518
0.458506
0.447215
0.435287
0.423362
0.411423
0.398924
0.388666
0.38263
0.399044
0.434675
0.450887
0.458139
0.457219
0.452086
0.444005
0.434355
0.423826
0.413111
0.402228
0.390535
0.380948
0.346621
0.36611
0.405785
0.425824
0.436317
0.43813
0.435299
0.429174
0.421188
0.412078
0.402592
0.392792
0.381923
0.372968
0.31042
0.332889
0.376554
0.400414
0.414159
0.41872
0.418207
0.414054
0.407749
0.400072
0.391828
0.383142
0.37312
0.364734
0.274183
0.299517
0.347093
0.374745
0.391738
0.399048
0.400859
0.398687
0.394074
0.38784
0.380843
0.373299
0.364166
0.356256
0.238066
0.266129
0.317509
0.348904
0.369126
0.379177
0.383309
0.383118
0.3802
0.375415
0.369662
0.363285
0.355113
0.347545
0.202225
0.232858
0.287912
0.322979
0.346395
0.359166
0.365605
0.367387
0.366164
0.362829
0.358307
0.353109
0.346038
0.338674
0.166813
0.199839
0.258411
0.297056
0.323618
0.339074
0.347798
0.351539
0.352001
0.350114
0.346807
0.342767
0.337015
0.329705
0.131979
0.1672
0.229113
0.27122
0.300866
0.318962
0.329939
0.335614
0.337746
0.337303
0.335194
0.332237
0.328045
0.32105
0.0978663
0.135071
0.200124
0.245555
0.278207
0.298887
0.312075
0.319656
0.323432
0.324424
0.32351
0.321551
0.318788
0.313618
0.0646105
0.10357
0.171545
0.220141
0.25571
0.278907
0.294257
0.303703
0.309096
0.311503
0.311792
0.310794
0.309236
0.306036
0.0323516
0.0727984
0.143476
0.195057
0.233442
0.259077
0.276529
0.287797
0.294769
0.298566
0.300057
0.300022
0.299464
0.297783
0.00131084
0.0428262
0.116007
0.170377
0.211467
0.239451
0.258939
0.271977
0.280487
0.285639
0.288318
0.289254
0.289588
0.289065
-0.0285068
0.0139134
0.0892096
0.146175
0.189848
0.22008
0.241529
0.256279
0.266282
0.272749
0.27659
0.278496
0.279678
0.280157
-0.0570056
-0.0137811
0.0631011
0.122527
0.168645
0.201016
0.224343
0.24074
0.252184
0.259924
0.264893
0.267756
0.269761
0.271164
-0.0840747
-0.0399746
0.037584
0.0995139
0.147916
0.182305
0.207421
0.225394
0.238223
0.247188
0.25325
0.25705
0.259848
0.26211
-0.109633
-0.0648322
0.0129922
0.0772296
0.127712
0.163993
0.190803
0.210274
0.224427
0.234568
0.241681
0.246393
0.249951
0.253013
-0.133609
-0.0884247
-0.0104426
0.0557427
0.108085
0.146124
0.174524
0.195411
0.210824
0.222088
0.230209
0.235802
0.240086
0.243899
-0.155935
-0.110632
-0.0326931
0.0350929
0.0890845
0.128739
0.15862
0.180835
0.197438
0.209768
0.218852
0.225295
0.230273
0.23479
-0.176553
-0.131329
-0.0537582
0.0153153
0.0707548
0.111873
0.143121
0.166573
0.184294
0.197631
0.207628
0.214887
0.220527
0.225708
-0.195422
-0.150437
-0.0736065
-0.00354967
0.0531335
0.0955625
0.128059
0.15265
0.171414
0.185696
0.196557
0.204594
0.210864
0.21667
-0.212515
-0.167906
-0.0921913
-0.0214581
0.0362467
0.0798424
0.113459
0.13909
0.158819
0.173981
0.185653
0.19443
0.201298
0.20769
-0.227819
-0.1837
-0.109469
-0.0383699
0.0200897
0.0647681
0.0993452
0.125913
0.146526
0.162504
0.174932
0.184409
0.19184
0.198782
-0.24133
-0.19779
-0.125406
-0.0542485
0.0047472
0.0503061
0.0857377
0.113139
0.134554
0.151279
0.164408
0.174543
0.182501
0.189958
-0.253058
-0.210161
-0.139973
-0.0690677
-0.00975106
0.0364685
0.0726493
0.100788
0.122916
0.14032
0.154094
0.164844
0.17329
0.181231
-0.263025
-0.220813
-0.153152
-0.0828093
-0.0233986
0.0233004
0.0600673
0.0888807
0.111629
0.129641
0.144
0.155324
0.164215
0.17261
-0.271264
-0.229756
-0.164929
-0.095459
-0.0361896
0.0108217
0.0480391
0.0773885
0.100707
0.119252
0.134136
0.145994
0.155283
0.164104
-0.277818
-0.237019
-0.175301
-0.107006
-0.0481163
-0.000962817
0.0365793
0.0663467
0.090132
0.109164
0.12451
0.13686
0.146507
0.155718
-0.282739
-0.242643
-0.184271
-0.117445
-0.0591732
-0.0120522
0.0256874
0.0557697
0.0799285
0.0993703
0.115122
0.127919
0.137912
0.147442
-0.286092
-0.246685
-0.191853
-0.126778
-0.0693588
-0.022446
0.0153613
0.0456585
0.0701071
0.0898853
0.105982
0.119137
0.129551
0.139246
-0.287949
-0.249217
-0.198068
-0.13501
-0.0786765
-0.0321455
0.00560017
0.0360116
0.0606692
0.0807156
0.0971025
0.110575
0.12136
0.131116
-0.288389
-0.250326
-0.202946
-0.142155
-0.0871335
-0.041155
-0.00359837
0.0268271
0.0516136
0.0718631
0.0884893
0.102237
0.113319
0.1232
-0.287503
-0.250112
-0.206527
-0.148231
-0.0947414
-0.0494823
-0.0122392
0.0181023
0.0429388
0.063327
0.0801401
0.0941169
0.105447
0.115502
-0.285385
-0.248691
-0.208856
-0.153264
-0.101515
-0.0571382
-0.0203301
0.00983245
0.034642
0.0551056
0.0720527
0.0862126
0.0977575
0.107976
-0.282139
-0.246191
-0.209987
-0.157286
-0.107475
-0.0641362
-0.0278812
0.00201048
0.0267189
0.0471962
0.0642257
0.0785249
0.09025
0.100594
-0.277874
-0.242743
-0.209987
-0.160335
-0.112641
-0.0704923
-0.0349049
-0.0053727
0.0191633
0.0395951
0.0566574
0.0710529
0.0829241
0.0933524
-0.272703
-0.238484
-0.208929
-0.162456
-0.117041
-0.0762247
-0.0414156
-0.0123279
0.0119674
0.0322972
0.0493447
0.0637945
0.0757793
0.0862562
-0.266744
-0.233551
-0.206902
-0.1637
-0.120704
-0.0813537
-0.0474293
-0.0188676
0.00512215
0.025296
0.0422833
0.0567464
0.0688152
0.0793087
-0.260119
-0.228074
-0.204006
-0.164126
-0.12366
-0.0859017
-0.0529634
-0.0250054
-0.00138297
0.0185836
0.0354678
0.0499047
0.0620296
0.0725112
-0.252951
-0.222178
-0.200351
-0.163795
-0.125944
-0.0898923
-0.0580366
-0.0307561
-0.00755949
0.0121513
0.0288921
0.043265
0.0554193
0.0658633
-0.245361
-0.215974
-0.196059
-0.162773
-0.127593
-0.0933507
-0.0626683
-0.0361356
-0.0134199
0.00598941
0.0225492
0.0368218
0.04898
0.0593633
-0.23747
-0.209563
-0.19126
-0.161131
-0.128647
-0.096303
-0.0668784
-0.0411602
-0.0189776
8.73463e-05
0.0164312
0.0305696
0.042707
0.0530088
-0.229392
-0.203034
-0.186087
-0.158942
-0.129148
-0.0987762
-0.0706872
-0.0458467
-0.0242462
-0.00556615
0.0105295
0.0245018
0.0365948
0.0467966
-0.221235
-0.196462
-0.180671
-0.156283
-0.12914
-0.100798
-0.0741148
-0.0502118
-0.0292402
-0.0109829
0.004835
0.0186115
0.0306379
0.0407231
-0.213096
-0.189914
-0.175136
-0.153231
-0.128672
-0.102395
-0.077181
-0.0542722
-0.0339736
-0.016175
-0.000662141
0.0128913
0.0248298
0.0347838
-0.205061
-0.183448
-0.169591
-0.149871
-0.127791
-0.103596
-0.0799048
-0.058044
-0.0384608
-0.0211549
-0.0059721
0.00733322
0.0191639
0.0289741
-0.1972
-0.177113
-0.164125
-0.146288
-0.12655
-0.10443
-0.0823046
-0.0615423
-0.0427153
-0.0259349
-0.0111054
0.0019291
0.0136333
0.0232886
-0.189573
-0.170955
-0.158804
-0.14257
-0.125003
-0.104924
-0.0843982
-0.0647812
-0.0467502
-0.030527
-0.0160725
-0.00332956
0.00823049
0.0177218
-0.182224
-0.165015
-0.153676
-0.138804
-0.123203
-0.105109
-0.0862021
-0.0677736
-0.0505772
-0.0349428
-0.0208842
-0.00845142
0.00294789
0.0122675
-0.175186
-0.159325
-0.148767
-0.135071
-0.121207
-0.105015
-0.0877326
-0.0705306
-0.054207
-0.039193
-0.0255508
-0.0134453
-0.00222227
0.00691962
-0.168481
-0.153914
-0.144093
-0.13144
-0.119075
-0.104674
-0.0890052
-0.0730616
-0.0576484
-0.0432872
-0.0300821
-0.0183198
-0.00728785
0.00167143
-0.162124
-0.1488
-0.139662
-0.127965
-0.116866
-0.104123
-0.0900356
-0.0753746
-0.0609081
-0.0472334
-0.0344872
-0.0230836
-0.0122567
-0.00348383
-0.156124
-0.143995
-0.135479
-0.124678
-0.114641
-0.103397
-0.0908402
-0.077476
-0.0639909
-0.0510376
-0.0387738
-0.0277446
-0.0171364
-0.00855315
-0.150484
-0.1395
-0.13155
-0.121593
-0.112456
-0.102537
-0.0914366
-0.0793711
-0.066899
-0.0547037
-0.0429482
-0.03231
-0.0219342
-0.0135437
-0.145202
-0.135311
-0.127879
-0.118714
-0.110357
-0.101586
-0.0918453
-0.0810648
-0.0696324
-0.0582325
-0.0470144
-0.0367862
-0.0266567
-0.0184627
-0.140274
-0.131419
-0.124467
-0.116036
-0.10838
-0.100588
-0.0920899
-0.0825623
-0.0721889
-0.0616218
-0.0509739
-0.0411777
-0.0313092
-0.0233176
-0.135692
-0.127812
-0.121313
-0.113556
-0.106542
-0.0995857
-0.0921978
-0.0838702
-0.0745653
-0.0648661
-0.0548246
-0.0454869
-0.0358952
-0.0281159
-0.131445
-0.124473
-0.118411
-0.111268
-0.104849
-0.0986165
-0.0922003
-0.0849982
-0.0767574
-0.0679561
-0.058561
-0.049713
-0.0404167
-0.0328645
-0.12752
-0.121389
-0.11575
-0.109172
-0.103301
-0.0977079
-0.092131
-0.0859597
-0.0787621
-0.0708794
-0.0621739
-0.0538511
-0.0448709
-0.0375729
-0.123902
-0.118543
-0.113316
-0.107264
-0.101894
-0.0968764
-0.0920224
-0.0867728
-0.080579
-0.0736206
-0.0656505
-0.0578904
-0.0492548
-0.0422418
-0.120574
-0.115917
-0.111095
-0.105536
-0.100626
-0.0961291
-0.0919026
-0.0874598
-0.0822118
-0.0761625
-0.0689763
-0.0618113
-0.0535581
-0.0468885
-0.117518
-0.113496
-0.109068
-0.103981
-0.0994924
-0.0954678
-0.0917921
-0.0880456
-0.0836694
-0.0784885
-0.072136
-0.0655856
-0.0577742
-0.0514787
-0.114712
-0.11126
-0.107218
-0.102584
-0.0984907
-0.0948921
-0.0917034
-0.0885543
-0.084966
-0.0805839
-0.0751205
-0.0691592
-0.0619183
-0.056017
-0.112135
-0.109195
-0.105527
-0.101332
-0.0976133
-0.0944011
-0.0916433
-0.0890067
-0.0861181
-0.0824422
-0.0779181
-0.0724956
-0.0659363
-0.0603671
-0.109755
-0.10729
-0.103977
-0.100206
-0.0968494
-0.093992
-0.0916154
-0.0894185
-0.0871426
-0.0840651
-0.080534
-0.075474
-0.0701676
-0.063664
-0.107558
-0.105521
-0.102549
-0.0991897
-0.0961848
-0.0936587
-0.0916216
-0.089801
-0.0880543
-0.0854647
-0.0829732
-0.0780457
-0.0744316
-0.0667952
-0.105525
-0.103868
-0.101227
-0.0982649
-0.0956032
-0.0933915
-0.0916611
-0.090161
-0.088867
-0.0866622
-0.0852289
-0.0801924
-0.0784178
-0.0700311
-0.103633
-0.102317
-0.0999928
-0.0974139
-0.0950869
-0.093177
-0.0917292
-0.0905016
-0.0895952
-0.0876818
-0.0872938
-0.0819039
-0.0821355
-0.0731273
-0.101859
-0.100854
-0.0988311
-0.0966198
-0.0946181
-0.0929997
-0.0918166
-0.0908226
-0.0902541
-0.088545
-0.0891678
-0.0831843
-0.0857081
-0.0758071
-0.100183
-0.0994655
-0.097726
-0.0958669
-0.0941796
-0.092843
-0.0919105
-0.0911213
-0.0908549
-0.0892712
-0.0908509
-0.0840763
-0.0891952
-0.0778905
-0.0985868
-0.0981408
-0.0966643
-0.0951411
-0.0937555
-0.0926905
-0.091996
-0.0913928
-0.0914002
-0.0898817
-0.0923305
-0.0846816
-0.0925366
-0.0792923
-0.0970546
-0.0968609
-0.0956417
-0.0944304
-0.0933318
-0.0925269
-0.0920581
-0.0916306
-0.0918824
-0.0904017
-0.0935801
-0.0851498
-0.0955593
-0.080052
-0.0955736
-0.0956236
-0.0946432
-0.0937247
-0.0928969
-0.092339
-0.0920829
-0.0918262
-0.0922883
-0.090857
-0.0945703
-0.0856331
-0.0980391
-0.0803678
-0.0941333
-0.0944226
-0.0936612
-0.0930166
-0.0924416
-0.0921162
-0.0920589
-0.0919699
-0.0926055
-0.091265
-0.0952848
-0.0862334
-0.0998036
-0.0805496
-0.092726
-0.0932521
-0.0926912
-0.0923006
-0.0919594
-0.0918505
-0.0919774
-0.0920519
-0.0928255
-0.0916286
-0.0957304
-0.0869745
-0.100811
-0.0808878
-0.0913468
-0.0921086
-0.0917305
-0.0915738
-0.0914468
-0.091537
-0.0918333
-0.0920641
-0.0929457
-0.0919373
-0.0959366
-0.0878126
-0.101152
-0.0815303
-0.0899935
-0.0909908
-0.0907783
-0.0908357
-0.0909027
-0.0911741
-0.0916243
-0.0920003
-0.0929691
-0.0921729
-0.0959463
-0.0886695
-0.100992
-0.0824587
-0.0886665
-0.0898993
-0.0898357
-0.0900877
-0.0903286
-0.0907636
-0.0913504
-0.0918589
-0.0929048
-0.0923134
-0.0958074
-0.0894653
-0.100504
-0.0835549
-0.0873687
-0.0888362
-0.0889057
-0.0893334
-0.0897285
-0.0903087
-0.0910147
-0.0916488
-0.0927551
-0.092338
-0.0955781
-0.0901352
-0.0998301
-0.0846855
-0.0861048
-0.0878053
-0.0879927
-0.0885779
-0.0891085
-0.089816
-0.0906261
-0.0913783
-0.0924989
-0.0922732
-0.0953095
-0.090608
-0.0990867
-0.0857494
-0.0848819
-0.0868115
-0.087103
-0.0878283
-0.0884763
-0.0892941
-0.0901939