/*--------------------------------*- C++ -*----------------------------------*\
  =========                 |
  \\      /  F ield         | OpenFOAM: The Open Source CFD Toolbox
   \\    /   O peration     | Website:  https://openfoam.org
    \\  /    A nd           | Version:  7
     \\/     M anipulation  |
\*---------------------------------------------------------------------------*/
FoamFile
{
    version     2.0;
    format      ascii;
    class       surfaceScalarField;
    location    "20";
    object      phi;
}
// * * * * * * * * * * * * * * * * * * * * * * * * * * * * * * * * * * * * * //

dimensions      [0 3 -1 0 0 0 0];

internalField   nonuniform List<scalar> 
32949
(
-1.40005e-05
1.40772e-05
-7.66552e-08
-4.48989e-05
3.10735e-05
-1.75091e-07
-8.74695e-05
4.2813e-05
-2.42396e-07
-0.000138115
5.09336e-05
-2.8754e-07
-0.000194848
5.7055e-05
-3.22242e-07
-0.000256635
6.21406e-05
-3.54347e-07
-0.000323079
6.68319e-05
-3.87829e-07
-0.000394084
7.14283e-05
-4.22694e-07
-0.000469713
7.60849e-05
-4.56269e-07
-0.000549897
8.06683e-05
-4.83909e-07
-0.000635084
8.56865e-05
-4.99659e-07
-0.000724566
8.9976e-05
-4.94478e-07
-0.000822011
9.79076e-05
-4.61811e-07
0.000102041
-3.87247e-07
-0.000923665
-1.38622e-05
2.79393e-05
-4.44858e-05
6.16971e-05
-8.66757e-05
8.50029e-05
-0.000136838
0.000101096
-0.000192966
0.000113182
-0.000253993
0.000123168
-0.000319485
0.000132324
-0.000389299
0.000141242
-0.000463443
0.000150229
-0.000541758
0.000158984
-0.000624646
0.000168574
-0.000711031
0.000176361
-0.000804824
0.0001917
0.000198183
-0.000900966
-1.35895e-05
4.15289e-05
-4.36698e-05
9.17774e-05
-8.51055e-05
0.000126439
-0.000134309
0.0001503
-0.000189233
0.000168106
-0.000248752
0.000182687
-0.000312353
0.000195925
-0.000379796
0.000208684
-0.000450988
0.000221421
-0.00052559
0.000233586
-0.000603927
0.000246911
-0.000684181
0.000256615
-0.000770807
0.000278327
0.000283485
-0.000856109
-1.3189e-05
5.47179e-05
-4.24679e-05
0.000121056
-8.27873e-05
0.000166758
-0.000130568
0.00019808
-0.000183705
0.000221244
-0.000240982
0.000239964
-0.000301768
0.000256711
-0.000365684
0.0002726
-0.000432488
0.000288225
-0.000501571
0.000302669
-0.000573188
0.000318528
-0.000644382
0.00032781
-0.000720579
0.000354524
0.000352967
-0.000790061
-1.26704e-05
6.73883e-05
-4.09047e-05
0.000149291
-7.97625e-05
0.000205616
-0.000125674
0.000243991
-0.000176459
0.000272029
-0.000230781
0.000294286
-0.000287857
0.000313787
-0.000347121
0.000331864
-0.000408141
0.000349245
-0.000469953
0.000364481
-0.000532783
0.000381359
-0.000592123
0.000387149
-0.000654935
0.000417336
0.000402123
-0.000704091
-1.20461e-05
7.94344e-05
-3.90124e-05
0.000176257
-7.60853e-05
0.000242689
-0.000119704
0.00028761
-0.000167597
0.000319922
-0.000218281
0.00034497
-0.000270783
0.00036629
-0.000324308
0.000385389
-0.000378196
0.000403133
-0.000431036
0.000417321
-0.000483119
0.000433441
-0.000527941
0.000431971
-0.000574688
0.000464083
0.000427012
-0.000599577
-1.1331e-05
9.07653e-05
-3.68295e-05
0.000201755
-7.18208e-05
0.00027768
-0.000112751
0.00032854
-0.000157242
0.000364413
-0.000203636
0.000391364
-0.000250739
0.000413393
-0.000297481
0.000432132
-0.000342937
0.000448589
-0.000385156
0.00045954
-0.000424601
0.000472886
-0.000452369
0.000459739
-0.000480486
0.0004922
0.000424299
-0.000477772
-1.05422e-05
0.000101308
-3.44004e-05
0.000225614
-6.70437e-05
0.000310323
-0.000104922
0.000366419
-0.000145534
0.000405025
-0.000187024
0.000432854
-0.000227942
0.000454311
-0.0002669
0.00047109
-0.000302666
0.000484355
-0.000332657
0.00048953
-0.000357586
0.000497815
-0.00036589
0.000468044
-0.0003726
0.000498909
0.000391293
-0.000339593
-9.69843e-06
0.000111006
-3.17736e-05
0.000247689
-6.18365e-05
0.000340386
-9.63344e-05
0.000400917
-0.000132626
0.000441317
-0.000168636
0.000468864
-0.000202623
0.000488298
-0.000232835
0.000501301
-0.000257687
0.000509207
-0.000273878
0.00050572
-0.000282324
0.000506261
-0.000268935
0.000454656
-0.000250697
0.00048067
0.000326137
-0.000185541
-8.81948e-06
0.000119825
-2.90007e-05
0.00026787
-5.62867e-05
0.000367672
-8.71116e-05
0.000431742
-0.00011868
0.000472886
-0.000148671
0.000498855
-0.000175018
0.000514645
-0.000195553
0.000521837
-0.000208275
0.000521929
-0.000209125
0.00050657
-0.000198895
0.000496031
-0.000162004
0.000417764
-0.000113358
0.000432025
0.000230652
-1.78727e-05
-7.92569e-06
0.000127751
-2.61351e-05
0.000286079
-5.04847e-05
0.000392022
-7.73817e-05
0.000458639
-0.00010386
0.000499364
-0.000127327
0.000522321
-0.00014535
0.000532668
-0.000155297
0.000531783
-0.000154651
0.000521283
-0.000138649
0.000490568
-0.000106986
0.000464369
-4.64526e-05
0.00035723
3.91703e-05
0.000346402
9.51349e-05
0.000174687
-7.03735e-06
0.000134788
-2.32297e-05
0.000302272
-4.45205e-05
0.000413312
-6.72708e-05
0.000481389
-8.83242e-05
0.000520417
-0.000104787
0.000538784
-0.000113818
0.000541699
-0.000112256
0.00053022
-9.69351e-05
0.000505963
-6.28063e-05
0.000456439
-3.69735e-06
0.00040526
8.35144e-05
0.000270019
0.000199557
0.000230359
-9.12709e-05
0.000385963
-6.17405e-06
0.000140963
-2.03358e-05
0.000316433
-3.84803e-05
0.000431457
-5.68978e-05
0.000499806
-7.22177e-05
0.000535737
-8.12118e-05
0.000547779
-8.05743e-05
0.000541062
-6.65454e-05
0.000516192
-3.49396e-05
0.000474357
1.81918e-05
0.000403308
0.000101774
0.000321677
0.000226895
0.000144898
0.000379533
7.77215e-05
-0.000332034
0.000620296
-5.35396e-06
0.000146316
-1.75007e-05
0.00032858
-3.24431e-05
0.000446399
-4.63689e-05
0.000513732
-5.56627e-05
0.000545031
-5.67183e-05
0.000548834
-4.5699e-05
0.000530042
-1.82499e-05
0.000488742
3.12044e-05
0.000424903
0.000107679
0.000326834
0.000219189
0.000210166
0.000382396
-1.83093e-05
0.000579333
-0.000119215
-0.000633306
0.000880604
-4.59323e-06
0.00015091
-1.47658e-05
0.000338753
-2.64764e-05
0.00045811
-3.57701e-05
0.000523026
-3.87475e-05
0.000548008
-3.13673e-05
0.000541454
-9.15367e-06
0.000507829
3.30118e-05
0.000446577
0.000101627
0.000356287
0.000203325
0.000225136
0.000348004
6.54876e-05
0.000552105
-0.00022241
0.000800596
-0.000367706
-0.00100136
0.00116865
-3.90527e-06
0.000154815
-1.21645e-05
0.000347012
-2.06322e-05
0.000466578
-2.51606e-05
0.000527554
-2.15146e-05
0.000544362
-5.14917e-06
0.000525089
2.91435e-05
0.000473536
8.74816e-05
0.000388239
0.000177618
0.00026615
0.000306928
9.58262e-05
0.000489659
-0.000117243
0.000738011
-0.000470762
0.00104496
-0.000674657
-0.0014406
0.00148421
-3.3001e-06
0.000158115
-9.72027e-06
0.000353432
-1.49429e-05
0.0004718
-1.45649e-05
0.000527176
-3.94826e-06
0.000533746
2.20611e-05
0.000499079
6.95224e-05
0.000426075
0.000145677
0.000312084
0.000260011
0.000151816
0.000420128
-6.42908e-05
0.000645892
-0.000343007
0.000942294
-0.000767164
0.00131351
-0.00104587
-0.0019512
0.0018241
-2.78377e-06
0.000160899
-7.4446e-06
0.000358093
-9.41683e-06
0.000473773
-3.96505e-06
0.000521725
1.40368e-05
0.000515744
5.04749e-05
0.000462641
0.00011244
0.00036411
0.000208453
0.000216072
0.000350051
1.02181e-05
0.000544922
-0.000259163
0.000818303
-0.000616388
0.00116673
-0.00111559
0.00160588
-0.00148503
-0.00252671
0.0021814
-2.35784e-06
0.000163257
-5.33502e-06
0.00036107
-4.03477e-06
0.000472472
6.70321e-06
0.000510987
3.26071e-05
0.00048984
8.04461e-05
0.000414802
0.000158545
0.00028601
0.000276887
9.77298e-05
0.00044919
-0.000162085
0.00068348
-0.000493453
0.00100799
-0.000940894
0.0014117
-0.00151931
0.00191892
-0.00199224
-0.00315305
0.00254525
-2.01892e-06
0.000165276
-3.37336e-06
0.000362425
1.25376e-06
0.000467845
1.75627e-05
0.000494678
5.20197e-05
0.000455383
0.000112464
0.000354358
0.000208676
0.000189798
0.000352278
-4.58722e-05
0.000558956
-0.000368763
0.000837664
-0.000772161
0.0012151
-0.00131833
0.00167506
-0.00197927
0.00224528
-0.00256247
-0.00380941
0.00290164
-1.75844e-06
0.000167034
-1.5219e-06
0.000362188
6.53288e-06
0.00045979
2.87938e-05
0.000472417
7.26264e-05
0.00041155
0.000147156
0.000279828
0.000263834
7.31201e-05
0.00043605
-0.000218088
0.000680773
-0.000613486
0.00100834
-0.00109973
0.00143826
-0.00174825
0.00195136
-0.00249236
0.00257293
-0.00318403
-0.00447152
0.00323504
-1.56311e-06
0.000168597
2.82743e-07
0.000360342
1.19207e-05
0.000448152
4.06374e-05
0.0004437
9.48741e-05
0.000357314
0.000185274
0.000189429
0.000325136
-6.67428e-05
0.000529599
-0.000422551
0.000815711
-0.000899598
0.00119474
-0.00147876
0.00167385
-0.00222735
0.00223176
-0.00305027
0.00288624
-0.00383852
-0.00511591
0.00353064
-1.41639e-06
0.000170014
2.02328e-06
0.000356902
1.7567e-05
0.000432609
5.33936e-05
0.000407874
0.000119297
0.000291411
0.000227668
8.10578e-05
0.000393727
-0.000232802
0.000634052
-0.000662875
0.000964097
-0.00122964
0.00139403
-0.0019087
0.00191548
-0.0027488
0.0025048
-0.00363959
0.00316887
-0.00450259
-0.00572367
0.00377663
-1.29382e-06
0.000171307
3.87503e-06
0.000351734
2.36596e-05
0.000412824
6.7416e-05
0.000364117
0.000146498
0.000212328
0.000275238
-4.7682e-05
0.000470656
-0.00042822
0.000749981
-0.0009422
0.001125
-0.00160466
0.00160124
-0.00238494
0.00215428
-0.00330184
0.00275803
-0.00424333
0.00340715
-0.00515171
-0.00628241
0.00396589
-1.16284e-06
0.00017247
5.90765e-06
0.000344663
3.04102e-05
0.000388322
8.31012e-05
0.000311426
0.000177128
0.000118301
0.000328865
-0.000199419
0.000556711
-0.000656066
0.000877101
-0.00126259
0.00129577
-0.00202333
0.00180952
-0.00289869
0.00238006
-0.00387238
0.00298
-0.00484327
0.0035927
-0.00576441
-0.00678632
0.00409661
-9.89176e-07
0.000173459
8.22448e-06
0.000335449
3.80513e-05
0.000358495
0.000100874
0.000248604
0.00021184
7.33479e-06
0.000389313
-0.000376892
0.000652216
-0.00091897
0.00101401
-0.00162438
0.00147185
-0.00248118
0.00201074
-0.00343758
0.00258304
-0.00444468
0.00316218
-0.00542242
0.00372311
-0.00632533
-0.00723493
0.00417172
-7.35685e-07
0.000174195
1.09382e-05
0.000323776
4.68284e-05
0.000322605
0.000121166
0.000174266
0.000251248
-0.000122747
0.000457114
-0.000582757
0.000756804
-0.00121866
0.00115799
-0.00202557
0.00164713
-0.00297031
0.00219664
-0.0039871
0.00275553
-0.00500357
0.00329995
-0.00596684
0.00380087
-0.00682625
-0.00763278
0.00419872
-3.54141e-07
0.000174549
1.41655e-05
0.000309256
5.69897e-05
0.00027978
0.000144397
8.68589e-05
0.000295866
-0.000274217
0.000532435
-0.000819326
0.000869217
-0.00155544
0.00130509
-0.00246145
0.00181468
-0.0034799
0.00236001
-0.00453242
0.00289281
-0.00553637
0.00339278
-0.0064668
0.00383154
-0.007265
-0.00799587
0.00419462
1.84808e-07
0.000174364
1.80204e-05
0.00029142
6.87755e-05
0.000229025
0.000170943
-1.53083e-05
0.000346044
-0.000449318
0.000614938
-0.00108822
0.000987203
-0.00192771
0.00145035
-0.0029246
0.00196784
-0.00399738
0.0024957
-0.00506028
0.00299316
-0.00603384
0.00344383
-0.00691747
0.00382933
-0.0076505
-0.00835545
0.00418891
8.34134e-07
0.00017353
2.26096e-05
0.000269645
8.24075e-05
0.000169227
0.000201114
-0.000134015
0.000401889
-0.000650093
0.000703661
-0.00138999
0.00110757
-0.00233162
0.00158841
-0.00340543
0.0021011
-0.00451007
0.00260106
-0.00556024
0.00305745
-0.00649022
0.00345846
-0.00731848
0.00380721
-0.00799926
-0.00867458
0.00412634
1.70945e-06
0.000171821
2.80357e-05
0.000243319
9.80782e-05
9.91849e-05
0.000235121
-0.000271057
0.000463196
-0.000878169
0.000796959
-0.00172375
0.00122646
-0.00276112
0.0017142
-0.00389318
0.00221074
-0.00500661
0.00267572
-0.00602522
0.00308866
-0.00690316
0.0034453
-0.00767512
0.00375726
-0.00831122
-0.00895766
0.00404034
2.8249e-06
0.000168996
3.43853e-05
0.000211758
0.000115941
1.76289e-05
0.000273046
-0.000428162
0.000529371
-0.00113449
0.000892534
-0.00208692
0.00133974
-0.00320832
0.00182361
-0.00437705
0.002295
-0.00547801
0.00272109
-0.00645131
0.00309148
-0.00727355
0.00340847
-0.00799211
0.00368884
-0.00859159
-0.00921482
0.00394599
4.2007e-06
0.000164795
4.17288e-05
0.00017423
0.000136103
-7.67453e-05
0.000314806
-0.000606865
0.000599388
-0.00141908
0.000987596
-0.00247512
0.00144353
-0.00366425
0.00191383
-0.00484735
0.00235383
-0.00591801
0.00273992
-0.00683741
0.00307048
-0.00760411
0.00335308
-0.00827472
0.00360682
-0.00884532
-0.00945028
0.00384228
5.85446e-06
0.000158941
5.01195e-05
0.000129965
0.000158613
-0.000185239
0.000360118
-0.00080837
0.000671789
-0.00173075
0.00107912
-0.00288246
0.00153461
-0.00411974
0.00198348
-0.00529622
0.00238852
-0.00632304
0.00273557
-0.00718446
0.00303008
-0.00789862
0.00328331
-0.00852795
0.00351465
-0.00907665
-0.00966809
0.00373245
7.79985e-06
0.000151141
5.95924e-05
7.81725e-05
0.000183454
-0.0003091
0.000408468
-0.00103339
0.000744753
-0.00206703
0.00116419
-0.0033019
0.00161073
-0.00456629
0.00203247
-0.00571795
0.00240123
-0.0066918
0.00271159
-0.00749482
0.00297424
-0.00816127
0.00320257
-0.00875628
0.00341509
-0.00928917
-0.00987099
0.00361799
1.00465e-05
0.000141094
7.01634e-05
1.80556e-05
0.000210531
-0.000449467
0.000459096
-0.00128195
0.000816232
-0.00242417
0.00124025
-0.00372591
0.00167063
-0.00499666
0.00206164
-0.00610896
0.00239456
-0.00702473
0.00267136
-0.00777162
0.00290629
-0.0083962
0.00311357
-0.00896356
0.00331008
-0.00948568
-0.0100609
0.00350001
1.26004e-05
0.000128494
8.18292e-05
-5.11731e-05
0.000239656
-0.000607294
0.000511
-0.00155329
0.00088413
-0.0027973
0.00130536
-0.00414714
0.00171397
-0.00540527
0.00207254
-0.00646753
0.00237126
-0.00732345
0.00261798
-0.00801834
0.002829
-0.00860722
0.00301838
-0.00915293
0.00320101
-0.00966831
-0.0102392
0.00337933
1.54639e-05
0.00011303
9.45661e-05
-0.000130275
0.000270535
-0.000783262
0.000562989
-0.00184575
0.000946492
-0.0031808
0.00135827
-0.00455892
0.00174119
-0.00578819
0.00206706
-0.0067934
0.00233399
-0.00759038
0.00255411
-0.00823846
0.00274457
-0.00879768
0.00291855
-0.00932692
0.00308886
-0.00983862
-0.0104068
0.00325646
1.86364e-05
9.43936e-05
0.000108328
-0.000219967
0.000302753
-0.000977687
0.000613749
-0.00215674
0.00100167
-0.00356873
0.0013984
-0.00495565
0.00175324
-0.00614303
0.00204728
-0.00708744
0.00228518
-0.00782828
0.00248198
-0.00843527
0.00265471
-0.0089704
0.00281525
-0.00948746
0.00297434
-0.00999771
-0.0105643
0.00313182
2.21143e-05
7.22793e-05
0.000123042
-0.000320895
0.000335778
-0.00119042
0.000661947
-0.00248291
0.00104844
-0.00395522
0.00142574
-0.00533296
0.00175143
-0.00646872
0.00201523
-0.00735124
0.002227
-0.00804005
0.00240344
-0.0086117
0.00256074
-0.00912771
0.0027093
-0.00963601
0.00285794
-0.0101463
-0.0107121
0.00300566
2.58914e-05
4.63879e-05
0.000138602
-0.000433606
0.000368978
-0.0014208
0.00070633
-0.00282027
0.001086
-0.00433488
0.00144076
-0.00568772
0.00173725
-0.00676521
0.00197287
-0.00758685
0.00216132
-0.0082285
0.00231995
-0.00877034
0.00246368
-0.00927143
0.00260132
-0.00977365
0.00274002
-0.010285
-0.0108503
0.00287822
2.99585e-05
1.64295e-05
0.000154863
-0.00055851
0.000401646
-0.00166758
0.000745813
-0.00316443
0.001114
-0.00470307
0.0014442
-0.00601792
0.00171222
-0.00703323
0.00192194
-0.00779657
0.00208969
-0.00839626
0.00223268
-0.00891333
0.00236427
-0.00940302
0.00249175
-0.00990113
0.00262085
-0.0104142
-0.0109791
0.00274966
3.43039e-05
-1.78745e-05
0.000171631
-0.000695837
0.000433043
-0.00192899
0.000779541
-0.00351093
0.00113245
-0.00505598
0.00143706
-0.00632253
0.00167785
-0.00727402
0.001864
-0.00798271
0.00201341
-0.00854567
0.00214254
-0.00904245
0.00226307
-0.00952355
0.00238092
-0.010019
0.00250064
-0.0105339
-0.0110985
0.00262011
3.89125e-05
-5.67869e-05
0.000188669
-0.000845593
0.000462444
-0.00220277
0.000806928
-0.00385541
0.00114165
-0.0053907
0.0014204
-0.00660128
0.00163556
-0.00748918
0.0018004
-0.00814755
0.00193352
-0.00867879
0.00205021
-0.00915915
0.0021605
-0.00963384
0.00226909
-0.0101276
0.00237954
-0.0106443
-0.0112087
0.00248971
4.37644e-05
-0.000100551
0.0002057
-0.00100753
0.000489177
-0.00248625
0.000827647
-0.00419388
0.00114212
-0.00570517
0.00139534
-0.0068545
0.00158664
-0.00768048
0.00173229
-0.0082932
0.00185086
-0.00879737
0.00195625
-0.00926454
0.00205689
-0.00973447
0.00215645
-0.0102271
0.00225771
-0.0107456
-0.0113096
0.00235858
4.88334e-05
-0.000149385
0.000222418
-0.00118111
0.00051266
-0.00277649
0.000841613
-0.00452284
0.0011345
-0.00599806
0.00136296
-0.00708296
0.00153223
-0.00784975
0.00166061
-0.00842158
0.00176611
-0.00890286
0.00186107
-0.0093595
0.00195247
-0.00982588
0.00204315
-0.0103178
0.00213526
-0.0108377
-0.0114011
0.00222681
5.40843e-05
-0.000203469
0.000238504
-0.00136553
0.000532434
-0.00307042
0.000848938
-0.00483934
0.00111953
-0.00626866
0.00132429
-0.00728772
0.00147334
-0.0079988
0.00158617
-0.00853441
0.00167978
-0.00899648
0.00176498
-0.0094447
0.00184745
-0.00990834
0.00192933
-0.0103997
0.00201231
-0.0109207
-0.0114833
0.00209452
5.94699e-05
-0.000262939
0.000253643
-0.00155971
0.000548169
-0.00336495
0.000849888
-0.00514106
0.00109799
-0.00651675
0.00128031
-0.00747004
0.00141086
-0.00812935
0.0015096
-0.00863316
0.0015923
-0.00907917
0.00166823
-0.00952064
0.00174197
-0.00998208
0.00181511
-0.0104728
0.00188896
-0.0109945
-0.0115562
0.00196181
6.49298e-05
-0.000327869
0.000267537
-0.00176231
0.000559678
-0.00365709
0.000844838
-0.00542622
0.00107063
-0.00674254
0.00123186
-0.00763128
0.00134551
-0.008243
0.00143145
-0.00871909
0.001504
-0.00915172
0.00157103
-0.00958767
0.00163616
-0.0100472
0.00170059
-0.0105373
0.00176532
-0.0110593
-0.0116196
0.00182878
7.03903e-05
-0.000398259
0.000279912
-0.00197183
0.000566898
-0.00394407
0.000834238
-0.00569356
0.0010382
-0.00694651
0.00117974
-0.00777281
0.00127794
-0.0083412
0.00135213
-0.00879328
0.00141513
-0.00921472
0.00147352
-0.00964606
0.00153014
-0.0101038
0.00158587
-0.010593
0.00164148
-0.0111149
-0.0116737
0.00169553
7.57668e-05
-0.000474026
0.000290533
-0.0021866
0.00056988
-0.00422342
0.000818578
-0.00594226
0.00100142
-0.00712935
0.00112462
-0.007896
0.00120867
-0.00842526
0.00127199
-0.00885661
0.00132591
-0.00926864
0.00137585
-0.009696
0.00142401
-0.010152
0.00147105
-0.01064
0.00151754
-0.0111614
-0.0117183
0.00156217
8.09678e-05
-0.000554994
0.000299211
-0.00240484
0.000568762
-0.00449297
0.000798365
-0.00617186
0.000960932
-0.00729192
0.0010671
-0.00800216
0.00113814
-0.0084963
0.00119132
-0.00890979
0.0012365
-0.00931382
0.00127813
-0.00973763
0.00131787
-0.0101917
0.00135621
-0.0106784
0.00139359
-0.0111987
-0.0117535
0.0014288
8.58997e-05
-0.000640893
0.000305802
-0.00262475
0.000563751
-0.00475092
0.000774107
-0.00638222
0.000917332
-0.00743515
0.00100769
-0.00809252
0.00106671
-0.00855532
0.00111033
-0.00895341
0.00114705
-0.00935054
0.00118045
-0.00977103
0.0012118
-0.0102231
0.00124146
-0.010708
0.00126973
-0.011227
-0.0117793
0.00129552
9.04708e-05
-0.000731364
0.000310216
-0.00284449
0.000555102
-0.00499581
0.000746297
-0.00657341
0.000871161
-0.00756001
0.000946847
-0.00816821
0.000994686
-0.00860316
0.00102922
-0.00898794
0.00105767
-0.009379
0.00108292
-0.00979627
0.00110589
-0.0102461
0.00112687
-0.010729
0.00114605
-0.0112462
-0.0117957
0.00116244
9.45953e-05
-0.000825959
0.000312411
-0.00306231
0.000543098
-0.00522649
0.000715406
-0.00674572
0.000822897
-0.0076675
0.00088494
-0.00823025
0.000922316
-0.00864053
0.000948129
-0.00901375
0.00096847
-0.00939934
0.000985601
-0.0098134
0.00100022
-0.0102607
0.00101254
-0.0107413
0.00102264
-0.0112563
-0.0118027
0.00102965
9.81956e-05
-0.000924155
0.000312394
-0.00327651
0.000528043
-0.00544214
0.000681874
-0.00689955
0.000772967
-0.00775859
0.000822291
-0.00827958
0.000849807
-0.00866805
0.000867195
-0.00903114
0.000879533
-0.00941168
0.000888588
-0.00982246
0.000894872
-0.010267
0.000898533
-0.010745
0.000899597
-0.0112574
-0.0118004
0.000897268
0.000101204
-0.00102536
0.000310213
-0.00348552
0.000510241
-0.00564217
0.00064611
-0.00703542
0.000721742
-0.00783423
0.00075917
-0.00831701
0.000777327
-0.00868621
0.000786519
-0.00904033
0.000790938
-0.0094161
0.000791948
-0.00982347
0.000789914
-0.0102649
0.000784941
-0.01074
0.000776994
-0.0112494
-0.0117888
0.000765383
0.000103564
-0.00112892
0.00030595
-0.0036879
0.000489996
-0.00582622
0.000608489
-0.00715391
0.000669552
-0.00789529
0.00069581
-0.00834326
0.000705025
-0.00869542
0.000706203
-0.00904151
0.000702768
-0.00941266
0.000695761
-0.00981646
0.000685433
-0.0102546
0.000671853
-0.0107264
0.000654941
-0.0112325
-0.0117679
0.000634094
0.000105229
-0.00123415
0.000299713
-0.00388238
0.000467604
-0.00599411
0.000569353
-0.00725566
0.000616679
-0.00794262
0.000632402
-0.00835899
0.000633018
-0.00869604
0.000626325
-0.00903482
0.000615091
-0.00940143
0.000600095
-0.00980147
0.000581497
-0.010236
0.000559338
-0.0107043
0.000533524
-0.0112067
-0.0117379
0.000503478
0.000106168
-0.00134032
0.000291631
-0.00406785
0.000443345
-0.00614582
0.000529006
-0.00734132
0.000563369
-0.00797698
0.000569108
-0.00836472
0.000561409
-0.00868834
0.000546959
-0.00902037
0.000527972
-0.00938244
0.000505017
-0.00977851
0.000478181
-0.0102092
0.000447469
-0.0106736
0.000412819
-0.011172
-0.0116987
0.000373625
0.000106361
-0.00144668
0.000281848
-0.00424333
0.000417485
-0.00628146
0.000487723
-0.00741156
0.000509833
-0.00799909
0.000506068
-0.00836096
0.000490285
-0.00867256
0.000468172
-0.00899826
0.000441474
-0.00935574
0.000410593
-0.00974763
0.000375559
-0.0101741
0.000336334
-0.0106343
0.000292881
-0.0111286
-0.0116504
0.000244608
0.0001058
-0.00155248
0.000270514
-0.00440805
0.000390272
-0.00640122
0.00044575
-0.00746704
0.000456254
-0.00800959
0.000443397
-0.0083481
0.000419724
-0.00864888
0.000390026
-0.00896856
0.000355657
-0.00932137
0.000316888
-0.00970886
0.000273695
-0.0101309
0.000226048
-0.0105867
0.000173777
-0.0110763
-0.011593
0.000116321
0.000104492
-0.00165697
0.000257799
-0.00456136
0.00036194
-0.00650536
0.000403303
-0.0075084
0.00040279
-0.00800908
0.000381195
-0.00832651
0.000349793
-0.00861748
0.000312577
-0.00893134
0.000270582
-0.00927938
0.000223965
-0.00966224
0.000172637
-0.0100796
0.000116677
-0.0105307
5.58722e-05
-0.0110155
-0.011525
-1.21084e-05
0.000102455
-0.00175943
0.000243863
-0.00470276
0.0003327
-0.00659419
0.000360574
-0.00753627
0.000349575
-0.00799808
0.000319549
-0.00829648
0.000280551
-0.00857848
0.000235881
-0.00888667
0.000186306
-0.0092298
0.000131889
-0.00960783
7.24525e-05
-0.0100202
7.64057e-06
-0.0104659
-6.11431e-05
-0.0109467
-0.0114492
-0.000136933
9.97169e-05
-0.00185914
0.000228857
-0.0048319
0.000302748
-0.00666808
0.000317731
-0.00755126
0.000296724
-0.00797708
0.00025853
-0.00825829
0.000212052
-0.00853201
0.000159987
-0.00883461
0.000102878
-0.00917269
4.06754e-05
-0.00954562
-2.67126e-05
-0.00995278
-9.9136e-05
-0.0103935
-0.00017739
-0.0108685
-0.0113652
-0.000261389
9.63163e-05
-0.00195546
0.000212928
-0.00494852
0.000272262
-0.00672742
0.000274921
-0.00755392
0.000244336
-0.00794649
0.000198203
-0.00821215
0.000144344
-0.00847815
8.49386e-05
-0.0087752
2.02521e-05
-0.00910801
-4.95099e-05
-0.00947586
-0.000124745
-0.00987755
-0.000205368
-0.0103129
-0.000292158
-0.0107817
-0.0112726
-0.000384741
9.22972e-05
-0.00204776
0.000196215
-0.00505243
0.000241403
-0.00677261
0.000232276
-0.00754479
0.000192496
-0.00790671
0.000138619
-0.00815828
7.74668e-05
-0.00841699
1.06385e-05
-0.00870837
-6.12134e-05
-0.00903615
-0.000138631
-0.00939844
-0.00022172
-0.00979446
-0.000310507
-0.0102241
-0.00040561
-0.0106866
-0.0111715
-0.000506761
8.77098e-05
-0.00213547
0.000178853
-0.00514358
0.000210314
-0.00680407
0.000189909
-0.00752438
0.000141275
-0.00785808
7.98252e-05
-0.00809683
1.13091e-05
-0.00834848
-6.23939e-05
-0.00863467
-0.000141706
-0.00895684
-0.000226695
-0.00931346
-0.000317552
-0.0097036
-0.000414404
-0.0101272
-0.000517734
-0.0105833
-0.0110618
-0.000627364
8.26076e-05
-0.00221808
0.000160965
-0.00522193
0.000179127
-0.00682223
0.000147914
-0.00749317
9.07346e-05
-0.0078009
2.18107e-05
-0.0080279
-5.35562e-05
-0.00827311
-0.000134549
-0.00855368
-0.000221164
-0.00887023
-0.000313627
-0.00922099
-0.00041217
-0.00960506
-0.000516985
-0.0100224
-0.000628469
-0.0104718
-0.0109438
-0.000746463
7.70466e-05
-0.00229512
0.000142669
-0.00528756
0.000147958
-0.00682752
0.000106372
-0.00745158
4.09078e-05
-0.00773543
-3.51862e-05
-0.00795181
-0.000117586
-0.00819071
-0.000205686
-0.00846558
-0.000299519
-0.00877639
-0.00039937
-0.00912114
-0.000505511
-0.00949892
-0.000618184
-0.00990973
-0.000737747
-0.0103522
-0.0108176
-0.000863988
7.10837e-05
-0.00236621
0.000124075
-0.00534055
0.000116914
-0.00682036
6.53614e-05
-0.00740003
-8.3248e-06
-0.00766175
-9.12642e-05
-0.00786887
-0.000180637
-0.00810134
-0.000275749
-0.00837047
-0.00037672
-0.00867542
-0.000483871
-0.00901399
-0.000597514
-0.00938527
-0.000717941
-0.00978931
-0.000845498
-0.0102246
-0.0106832
-0.000979867
6.47752e-05
-0.00243098
0.000105287
-0.00538106
8.60834e-05
-0.00680116
2.49775e-05
-0.00733893
-5.61821e-05
-0.00758059
-0.000146403
-0.00777865
-0.000242656
-0.00800509
-0.000344698
-0.00826842
-0.00045272
-0.0085674
-0.000567078
-0.00889963
-0.000688121
-0.00926423
-0.000816195
-0.00966123
-0.000951652
-0.0100892
-0.0105408
-0.00109403
5.81759e-05
-0.00248916
8.64044e-05
-0.00540929
5.55476e-05
-0.0067703
-1.47493e-05
-0.00726863
-0.000103421
-0.00749191
-0.00020056
-0.00768151
-0.000303606
-0.00790204
-0.000412491
-0.00815954
-0.000527475
-0.00845242
-0.000648943
-0.00877816
-0.000777277
-0.0091359
-0.000912885
-0.00952563
-0.00105614
-0.00994593
-0.0103906
-0.00120642
5.1339e-05
-0.0025405
6.75249e-05
-0.00542547
2.53813e-05
-0.00672815
-5.37605e-05
-0.00718949
-0.000149785
-0.00739589
-0.000253703
-0.00757759
-0.000363451
-0.00779229
-0.000479091
-0.0080439
-0.000600942
-0.00833057
-0.000729416
-0.00864969
-0.000864928
-0.00900039
-0.00100795
-0.0093826
-0.00115891
-0.00979497
-0.0102325
-0.00131696
4.43204e-05
-0.00258482
4.87489e-05
-0.0054299
-4.34935e-06
-0.00667506
-9.20318e-05
-0.00710181
-0.00019522
-0.0072927
-0.000305804
-0.00746701
-0.000422158
-0.00767594
-0.000544461
-0.0079216
-0.000673079
-0.00820195
-0.000808453
-0.00851432
-0.000951023
-0.00885782
-0.00110134
-0.00923229
-0.00125988
-0.00963643
-0.0100668
-0.00142559
3.7181e-05
-0.002622
3.02134e-05
-0.00542293
-3.35587e-05
-0.00661128
-0.000129528
-0.00700584
-0.000239697
-0.00718253
-0.000356836
-0.00734987
-0.000479699
-0.00755307
-0.000608565
-0.00779273
-0.000743847
-0.00806667
-0.000886009
-0.00837216
-0.00103551
-0.00870831
-0.00119298
-0.00907482
-0.00135899
-0.00947042
-0.00989353
-0.00153225
2.997e-05
-0.00265197
1.22571e-05
-0.00540522
-6.21755e-05
-0.00653685
-0.000166231
-0.00690178
-0.000283197
-0.00706557
-0.000406773
-0.00722629
-0.000536042
-0.00742381
-0.000671369
-0.0076574
-0.000813208
-0.00792483
-0.000962041
-0.00822332
-0.00111835
-0.008552
-0.00128284
-0.00891034
-0.0014562
-0.00929706
-0.00971285
-0.00163688
2.26782e-05
-0.00267465
-5.56961e-06
-0.00537697
-9.02346e-05
-0.00645219
-0.000202116
-0.0067899
-0.0003257
-0.00694198
-0.000455592
-0.0070964
-0.000591159
-0.00728824
-0.000732839
-0.00751572
-0.000881122
-0.00777654
-0.00103651
-0.00806793
-0.0011995
-0.00838901
-0.00137086
-0.00873898
-0.00155143
-0.00911649
-0.00952488
-0.0017394
1.52845e-05
-0.00268993
-2.50749e-05
-0.00533661
-0.000117817
-0.00635944
-0.000237133
-0.00667058
-0.000367182
-0.00681193
-0.000503269
-0.00696031
-0.000645023
-0.00714648
-0.000792943
-0.0073678
-0.000947554
-0.00762193
-0.00110937
-0.00790611
-0.00127891
-0.00821947
-0.00145702
-0.00856087
-0.00164467
-0.00892884
-0.00932988
-0.00183967
7.9198e-06
-0.00269785
-4.33998e-05
-0.00528529
-0.000144792
-0.00625805
-0.000271261
-0.00654412
-0.00040762
-0.00667558
-0.000549782
-0.00681815
-0.000697606
-0.00699866
-0.000851649
-0.00721376
-0.00101247
-0.00746112
-0.00118059
-0.00773799
-0.00135655
-0.00804351
-0.00154126
-0.00837616
-0.00173582
-0.00873428
-0.00912813
-0.00193756
8.89685e-07
-0.00269874
-6.1142e-05
-0.00522326
-0.000171109
-0.00614809
-0.000304485
-0.00641074
-0.000446996
-0.00653306
-0.000595108
-0.00667004
-0.000748882
-0.00684489
-0.000908924
-0.00705372
-0.00107583
-0.00729421
-0.00125013
-0.00756369
-0.00143237
-0.00786127
-0.00162357
-0.00818496
-0.00182482
-0.00853302
-0.0089196
-0.00203336
-6.84343e-06
-0.0026919
-7.84352e-05
-0.00515167
-0.000196723
-0.0060298
-0.000336785
-0.00627068
-0.000485291
-0.00638456
-0.000639227
-0.0065161
-0.000798825
-0.00668529
-0.00096474
-0.0068878
-0.00113759
-0.00712136
-0.00131794
-0.00738334
-0.00150638
-0.00767283
-0.00170396
-0.00798738
-0.00191167
-0.00832531
-0.00870446
-0.00212681
-1.42165e-05
-0.00267768
-9.52881e-05
-0.0050706
-0.00022161
-0.00590348
-0.000368144
-0.00612414
-0.000522492
-0.00623021
-0.000682119
-0.00635648
-0.000847409
-0.00652
-0.00101906
-0.00671615
-0.00119773
-0.00694269
-0.001384
-0.00719707
-0.00157856
-0.00747827
-0.00178252
-0.00778342
-0.00199605
-0.00811179
-0.00848449
-0.00221601
-2.13995e-05
-0.00265628
-0.000111691
-0.00498031
-0.000245752
-0.00576942
-0.000398547
-0.00597135
-0.000558581
-0.00607018
-0.000723763
-0.00619129
-0.00089461
-0.00634915
-0.00107187
-0.00653889
-0.00125621
-0.00675835
-0.00144826
-0.00700502
-0.00164886
-0.00727768
-0.00185908
-0.0075732
-0.00207909
-0.00789178
-0.00826347
-0.00230011
-2.8422e-05
-0.00262786
-0.000127632
-0.0048811
-0.000269134
-0.00562791
-0.000427983
-0.0058125
-0.000593546
-0.00590461
-0.000764142
-0.0060207
-0.000940406
-0.00617289
-0.00112312
-0.00635618
-0.00131299
-0.00656848
-0.0015107
-0.00680731
-0.00171716
-0.00707121
-0.00193286
-0.0073575
-0.00215486
-0.00766977
-0.00801968
-0.00239865
-3.52815e-05
-0.00259258
-0.000143095
-0.00477328
-0.000291745
-0.00547926
-0.000456439
-0.00564781
-0.000627372
-0.00573368
-0.000803237
-0.00584483
-0.000984771
-0.00599135
-0.00117279
-0.00616816
-0.00136804
-0.00637323
-0.00157126
-0.00660409
-0.00178328
-0.00685919
-0.00200413
-0.00713665
-0.00223336
-0.00744054
-0.0077712
-0.00248185
-4.19679e-05
-0.00255061
-0.000158067
-0.00465718
-0.000313572
-0.00532376
-0.000483906
-0.00547747
-0.000660047
-0.00555754
-0.00084103
-0.00566385
-0.00102768
-0.0058047
-0.00122086
-0.00597498
-0.00142134
-0.00617275
-0.0016299
-0.00639553
-0.00184733
-0.00664176
-0.00207375
-0.00691023
-0.00231015
-0.00720414
-0.00751879
-0.00256256
-4.84695e-05
-0.00250214
-0.000172535
-0.00453312
-0.000334608
-0.00516169
-0.000510376
-0.0053017
-0.00069156
-0.00537636