/*--------------------------------*- C++ -*----------------------------------*\
  =========                 |
  \\      /  F ield         | OpenFOAM: The Open Source CFD Toolbox
   \\    /   O peration     | Website:  https://openfoam.org
    \\  /    A nd           | Version:  7
     \\/     M anipulation  |
\*---------------------------------------------------------------------------*/
FoamFile
{
    version     2.0;
    format      ascii;
    class       volVectorField;
    location    "20";
    object      U;
}
// * * * * * * * * * * * * * * * * * * * * * * * * * * * * * * * * * * * * * //

dimensions      [0 1 -1 0 0 0 0];

internalField   nonuniform List<vector> 
16660
(
(-0.00306708 0.00139426 -8.7696e-22)
(-0.016344 0.00277834 -4.05244e-21)
(-0.037415 0.0034036 -5.63961e-21)
(-0.0587251 0.00360719 1.52953e-21)
(-0.080071 0.00358324 1.70972e-21)
(-0.100065 0.00345756 3.97942e-23)
(-0.118695 0.00329382 -3.15037e-21)
(-0.135883 0.00312114 -7.18362e-22)
(-0.151761 0.00295087 -4.57464e-21)
(-0.166343 0.00277578 -5.86803e-22)
(-0.179867 0.00262473 -4.10159e-21)
(-0.192033 0.00243617 -4.28653e-21)
(-0.203995 0.00243062 7.03174e-22)
(-0.214047 0.00223883 -2.55826e-21)
(-0.00318986 0.00413568 -7.1963e-22)
(-0.016509 0.00824088 1.57737e-20)
(-0.0374831 0.0100931 -2.69052e-21)
(-0.0586374 0.0106931 -1.97145e-21)
(-0.0797798 0.010616 -8.90655e-21)
(-0.0995339 0.0102351 4.041e-21)
(-0.117889 0.00974002 3.92974e-21)
(-0.13476 0.00921809 1.22738e-20)
(-0.15028 0.00870428 -1.76052e-21)
(-0.164444 0.00817666 -4.33564e-21)
(-0.177509 0.00772539 7.18874e-21)
(-0.189076 0.00715391 6.51318e-21)
(-0.200461 0.0071529 7.12267e-21)
(-0.209477 0.00655655 6.71444e-21)
(-0.0034329 0.00682965 9.6861e-22)
(-0.0168365 0.0136236 -2.19678e-20)
(-0.0376191 0.0166951 4.0187e-21)
(-0.058464 0.017692 -1.80029e-20)
(-0.0792013 0.0175642 -1.08702e-20)
(-0.0984785 0.01693 1.13469e-21)
(-0.116284 0.0161044 -5.3314e-22)
(-0.132524 0.015233 -1.2204e-20)
(-0.14733 0.014375 1.64886e-20)
(-0.160657 0.0134899 4.28826e-21)
(-0.172815 0.012737 2.74407e-21)
(-0.183184 0.0117437 -2.10964e-20)
(-0.193446 0.0117576 9.71209e-21)
(-0.200405 0.0106333 5.79918e-21)
(-0.0037918 0.00944586 2.5542e-21)
(-0.0173224 0.018875 -9.37191e-21)
(-0.0378225 0.0231525 4.39133e-21)
(-0.0582079 0.0245464 7.88332e-21)
(-0.0783415 0.024372 -2.26556e-21)
(-0.0969066 0.0234875 -2.2521e-20)
(-0.11389 0.0223326 2.58116e-20)
(-0.129187 0.0211112 3.12602e-20)
(-0.142926 0.0199081 3.32666e-21)
(-0.155 0.0186581 -7.21048e-21)
(-0.165817 0.0176036 1.35327e-20)
(-0.174383 0.0161257 9.36245e-21)
(-0.183037 0.0161778 -1.01177e-20)
(-0.186943 0.0143218 -3.91992e-20)
(-0.00426017 0.0119559 1.72453e-20)
(-0.0179606 0.0239455 -3.52385e-21)
(-0.0380926 0.0294097 2.22302e-20)
(-0.0578731 0.0312 -4.17264e-21)
(-0.0772087 0.0309838 2.20762e-20)
(-0.09483 0.0298528 -7.81585e-21)
(-0.110723 0.0283702 -2.03217e-20)
(-0.124767 0.0267981 -6.72154e-21)
(-0.137092 0.0252492 -1.25846e-20)
(-0.147496 0.0236251 1.71239e-20)
(-0.156558 0.0222732 -2.61177e-20)
(-0.162703 0.0202277 3.464e-20)
(-0.169344 0.0203621 -4.3377e-21)
(-0.169224 0.0174972 3.44186e-20)
(-0.00482993 0.0143337 -1.27264e-20)
(-0.0187432 0.028789 3.2265e-20)
(-0.0384282 0.0354132 -2.49529e-20)
(-0.0574647 0.0375975 1.58501e-20)
(-0.0758134 0.0373446 1.41876e-20)
(-0.0922635 0.0359713 2.2682e-20)
(-0.106801 0.0341625 2.19556e-20)
(-0.119285 0.0322392 -1.63684e-20)
(-0.129852 0.0303439 4.66689e-21)
(-0.138166 0.0283359 -2.87881e-20)
(-0.145085 0.0266983 1.70961e-20)
(-0.14816 0.0239877 -4.17662e-20)
(-0.152476 0.0242767 -1.95184e-21)
(-0.147364 0.0200676 -1.24908e-20)
(-0.00549152 0.0165566 -3.29471e-21)
(-0.0196608 0.0333627 1.11535e-21)
(-0.0388275 0.0411123 2.98692e-20)
(-0.0569882 0.0436853 -1.2964e-20)
(-0.0741672 0.0434001 -1.82128e-20)
(-0.0892235 0.0417887 -3.05674e-20)
(-0.102145 0.0396553 -1.643e-20)
(-0.112764 0.0373798 -4.66543e-21)
(-0.121235 0.0351379 3.46717e-20)
(-0.127029 0.0327369 4.54221e-21)
(-0.131443 0.0308333 4.19609e-21)
(-0.130745 0.0273562 6.01883e-20)
(-0.132508 0.0279021 -5.09421e-21)
(-0.121408 0.021988 1.10579e-20)
(-0.00623439 0.0186052 -4.57196e-22)
(-0.0207026 0.0376284 -7.22183e-21)
(-0.0392884 0.0464596 -3.84047e-21)
(-0.0564491 0.0494117 -2.32876e-20)
(-0.0722823 0.0490972 -1.21643e-20)
(-0.085727 0.0472513 4.48808e-20)
(-0.096774 0.0447944 -1.63348e-20)
(-0.105224 0.0421656 -7.06432e-21)
(-0.111263 0.0395767 -2.66825e-21)
(-0.11409 0.0367759 -2.1783e-20)
(-0.115662 0.0346317 -1.74795e-20)
(-0.110413 0.0302973 -4.82423e-20)
(-0.109461 0.0312179 -3.65614e-20)
(-0.0912842 0.0232948 2.44002e-20)
(-0.00704729 0.0204642 -1.91193e-20)
(-0.0218567 0.0415531 3.49531e-20)
(-0.0398077 0.0514113 8.06148e-21)
(-0.0558523 0.0547277 2.7988e-20)
(-0.0701702 0.0543842 1.51255e-21)
(-0.0817894 0.0523061 -4.68129e-21)
(-0.0907068 0.0495261 -3.37282e-21)
(-0.0966797 0.0465429 7.0225e-20)
(-0.0999511 0.0436057 -7.81967e-20)
(-0.0993392 0.0404036 3.39108e-21)
(-0.0977501 0.0380438 6.98422e-21)
(-0.0870811 0.0327958 3.55012e-20)
(-0.08326 0.0341534 -4.39615e-20)
(-0.0567715 0.0241977 2.09098e-20)
(-0.0079188 0.0221225 -4.19884e-20)
(-0.0231106 0.0451088 -1.46178e-20)
(-0.0403811 0.0559283 2.78506e-21)
(-0.0552011 0.0595869 8.69734e-21)
(-0.0678401 0.059211 -5.76727e-20)
(-0.0774228 0.0569014 1.80021e-20)
(-0.0839545 0.0537975 -1.5356e-20)
(-0.0871378 0.0504589 -4.80778e-20)
(-0.087299 0.0471702 3.43729e-20)
(-0.0827393 0.0435763 1.92163e-20)
(-0.0776688 0.0410076 1.39238e-20)
(-0.0606475 0.0348994 6.17592e-20)
(-0.05367 0.0364921 6.79754e-20)
(-0.0175936 0.025108 -1.92529e-20)
(-0.00883769 0.0235734 4.72001e-20)
(-0.0244509 0.0482737 -4.62898e-20)
(-0.0410029 0.059976 3.81498e-20)
(-0.0544963 0.0639465 -6.09064e-20)
(-0.0652969 0.06353 6.7056e-22)
(-0.0726325 0.0609872 -5.52179e-20)
(-0.0765184 0.0575576 -1.81142e-20)
(-0.076587 0.0538633 3.97278e-20)
(-0.0732799 0.0502166 4.9447e-20)
(-0.064223 0.0462613 3.13452e-20)
(-0.0552815 0.0433975 2.49462e-22)
(-0.0310373 0.0367931 -8.09556e-20)
(-0.0202979 0.0379682 3.73071e-20)
(0.026287 0.0260298 -3.48692e-20)
(-0.00979338 0.0248144 -1.66426e-20)
(-0.025864 0.0510315 -3.29378e-20)
(-0.0416652 0.0635249 -4.34571e-20)
(-0.0537347 0.0677676 9.21198e-20)
(-0.0625395 0.0672968 6.90113e-20)
(-0.0674141 0.0645163 4.71788e-20)
(-0.0683842 0.0607579 6.42108e-20)
(-0.0649929 0.0567091 -4.0409e-20)
(-0.0578273 0.052693 -7.35055e-20)
(-0.043707 0.0484562 -7.27194e-20)
(-0.0302714 0.0449711 6.62545e-20)
(0.00195244 0.0385927 4.58845e-20)
(0.0170096 0.0388992 -4.16254e-20)
(0.0765669 0.0267892 -9.32888e-21)
(-0.0107763 0.0258473 5.19232e-20)
(-0.0273359 0.0533721 5.09405e-20)
(-0.0423574 0.0665512 -2.13556e-20)
(-0.0529076 0.0710159 5.90348e-20)
(-0.0595574 0.0704704 -3.3614e-20)
(-0.0617489 0.0674449 -6.3203e-20)
(-0.0595153 0.0633542 -3.46752e-20)
(-0.0522898 0.0589561 2.67843e-20)
(-0.0408089 0.0545467 4.42813e-20)
(-0.0211065 0.0501923 -5.7161e-21)
(-0.00234538 0.0458074 -3.2213e-20)
(0.03914 0.0400049 -5.68279e-20)
(0.0582415 0.0396456 -5.48843e-22)
(0.134406 0.0274681 2.82077e-20)
(-0.0117781 0.0266776 -1.7231e-20)
(-0.0288522 0.0552911 3.34599e-20)
(-0.0430656 0.0690365 4.98394e-20)
(-0.051999 0.0736621 -7.79038e-20)
(-0.0563279 0.0730148 1.1908e-19)
(-0.0555985 0.0697343 3.74825e-20)
(-0.0498451 0.0653087 6.70997e-20)
(-0.0383737 0.0605753 -5.6169e-20)
(-0.0220108 0.0557454 7.53326e-20)
(0.00390012 0.0514124 6.75433e-20)
(0.0286288 0.0461438 -1.69053e-20)
(0.0812958 0.0409254 -3.73657e-20)
(0.103962 0.039972 3.57555e-20)
(0.20076 0.0285395 4.66192e-21)
(-0.012792 0.0273145 -4.80098e-20)
(-0.030398 0.0567896 1.41662e-20)
(-0.0437711 0.0709688 2.49598e-20)
(-0.0509835 0.0756828 2.97701e-20)
(-0.0528121 0.0748998 -8.61372e-20)
(-0.0488995 0.0713525 -9.29887e-21)
(-0.0392657 0.0665912 -1.67786e-20)
(-0.023082 0.0615435 7.94998e-20)
(-0.0011929 0.0563 -1.57119e-20)
(0.0317869 0.0520577 4.14361e-20)
(0.0631759 0.0459169 -1.51182e-20)
(0.129033 0.0417823 7.31179e-20)
(0.154986 0.0396095 -1.45428e-20)
(0.276477 0.0303625 -2.78974e-20)
(-0.0138129 0.0277699 8.03335e-21)
(-0.0319576 0.0578738 6.09295e-20)
(-0.0444496 0.0723418 -3.59075e-20)
(-0.0498236 0.0770612 2.94662e-20)
(-0.0489509 0.0761026 -3.76384e-20)
(-0.0415565 0.072276 1.08731e-20)
(-0.027622 0.0671845 -4.62414e-20)
(-0.00616611 0.0618497 -4.09454e-20)
(0.0219885 0.0562408 -1.30766e-19)
(0.0630416 0.0522409 -9.39211e-20)
(0.102101 0.0450465 -5.67246e-20)
(0.182992 0.0429797 -1.14933e-19)
(0.212396 0.0385654 -3.43028e-20)
(0.361971 0.0332052 -5.47097e-22)
(-0.0148372 0.028058 -5.53119e-20)
(-0.033514 0.0585542 -1.46039e-19)
(-0.0450698 0.0731554 -6.97766e-20)
(-0.0484669 0.0777877 -9.54695e-20)
(-0.0446597 0.076609 9.78568e-20)
(-0.033434 0.0724927 -1.53519e-20)
(-0.0147019 0.0670879 -1.86121e-20)
(0.0127019 0.0615122 -9.41366e-20)
(0.0480248 0.0555995 1.23511e-19)
(0.0982493 0.0521207 4.82786e-20)
(0.146403 0.0436466 7.10739e-20)
(0.243693 0.0448047 1.67873e-20)
(0.277597 0.0372224 9.83428e-20)
(0.456824 0.0372879 -5.43174e-20)
(-0.0158628 0.0281946 6.535e-20)
(-0.0350484 0.0588454 -2.30843e-20)
(-0.0455914 0.0734158 -6.72697e-20)
(-0.0468436 0.0778608 -4.99129e-21)
(-0.0398239 0.0764154 1.48156e-20)
(-0.0243488 0.0720039 5.95136e-20)
(-0.000220507 0.0663196 5.04726e-21)
(0.0339409 0.0605831 2.63741e-20)
(0.0775365 0.0544589 -1.49504e-19)
(0.13811 0.0518541 1.50909e-20)
(0.19725 0.0420643 -5.63393e-22)
(0.311361 0.0473899 4.95998e-20)
(0.352099 0.0363692 -1.40514e-20)
(0.559423 0.0427908 4.65848e-20)
(-0.0168886 0.0281962 -2.09649e-20)
(-0.0365389 0.0587649 4.02518e-20)
(-0.045964 0.0731346 1.59707e-19)
(-0.0448625 0.0772878 6.90202e-20)
(-0.0342932 0.0755303 -3.80292e-20)
(-0.0140628 0.0708289 -6.94253e-21)
(0.0161869 0.0649223 -6.47701e-20)
(0.0580735 0.0591486 8.91694e-20)
(0.111258 0.0529731 7.6068e-20)
(0.183403 0.0515956 -7.84691e-20)
(0.255839 0.0408916 -1.4335e-20)
(0.385851 0.0506886 1.82795e-20)
(0.436959 0.0370622 -6.02978e-20)
(0.666777 0.0498431 -4.84221e-20)
(-0.0179144 0.0280794 -1.91119e-20)
(-0.03796 0.058332 -9.09138e-21)
(-0.0461248 0.07233 1.72233e-20)
(-0.0424087 0.0760857 -7.26269e-20)
(-0.027877 0.0739768 5.88241e-21)
(-0.0022768 0.0690078 -1.05327e-19)
(0.03497 0.0629699 -2.74823e-21)
(0.0857256 0.0573362 -6.7104e-20)
(0.150009 0.0513776 -1.98763e-20)
(0.234927 0.0515056 5.0465e-20)
(0.323083 0.0408957 -5.70116e-20)
(0.46667 0.0545904 -1.29199e-19)
(0.531997 0.0402834 7.70973e-20)
(0.774709 0.0584594 1.05099e-19)
(-0.0189399 0.0278595 -1.64241e-20)
(-0.0392803 0.0575667 -9.62512e-21)
(-0.0459973 0.0710259 2.24261e-20)
(-0.03934 0.0742816 1.43861e-19)
(-0.0203401 0.0717941 4.80352e-20)
(0.0113746 0.066605 5.29927e-20)
(0.0566632 0.0605725 1.89677e-20)
(0.117612 0.055321 1.77533e-20)
(0.194629 0.0499918 -5.06097e-22)
(0.293427 0.0517885 -3.10737e-20)
(0.399215 0.0428177 5.89017e-20)
(0.552985 0.0591232 1.6269e-20)
(0.635138 0.046558 -1.30049e-20)
(0.87846 0.0684283 -1.24381e-19)
(-0.0199645 0.0275505 -8.855e-20)
(-0.0404617 0.0564891 -9.91202e-21)
(-0.045489 0.0692523 -1.40455e-19)
(-0.035485 0.0719132 -8.75564e-20)
(-0.0113997 0.0690397 -5.42088e-20)
(0.0273237 0.0637132 4.80438e-20)
(0.0818763 0.0578818 6.42748e-20)
(0.154501 0.0533304 1.41079e-20)
(0.245875 0.0492028 -2.79962e-20)
(0.359442 0.0527582 9.759e-20)
(0.483464 0.0471296 8.02376e-20)
(0.643489 0.0645491 2.99218e-20)
(0.742329 0.0557611 -4.02107e-20)
(0.973531 0.0792478 1.39618e-19)
(-0.0209865 0.0271641 1.25875e-19)
(-0.0414616 0.0551235 -2.59869e-20)
(-0.0444869 0.0670399 6.1727e-20)
(-0.0306408 0.0690292 6.86284e-20)
(-0.000724443 0.065791 3.65468e-20)
(0.0460657 0.0604568 1.2465e-20)
(0.111275 0.0550951 2.93549e-20)
(0.197156 0.0516469 -4.77987e-20)
(0.304295 0.0494243 7.84084e-20)
(0.433074 0.0548651 -4.88719e-20)
(0.573968 0.0539053 -4.23139e-20)
(0.736173 0.0712217 -1.41314e-20)
(0.848212 0.0672098 -6.43041e-20)
(1.05646 0.090201 -1.21443e-19)
(-0.0220012 0.02671 9.0521e-20)
(-0.0422293 0.0534916 1.14971e-19)
(-0.0428607 0.064423 8.61016e-20)
(-0.0245712 0.0656906 -7.53047e-20)
(0.0120638 0.0621467 -1.32539e-20)
(0.0681483 0.0569939 -1.17216e-21)
(0.145546 0.0524574 5.27579e-20)
(0.246248 0.0506074 9.42883e-20)
(0.370072 0.0510459 -5.46155e-20)
(0.513704 0.0586176 2.50115e-20)
(0.667957 0.0628717 -7.40265e-20)
(0.828233 0.0793066 3.31483e-20)
(0.94733 0.0799407 8.8221e-20)
(1.12525 0.100546 -1.98041e-20)
(-0.0230008 0.0261938 -1.22405e-19)
(-0.0427007 0.0516091 6.95011e-20)
(-0.0404634 0.0614448 -8.43713e-20)
(-0.0170092 0.0619704 1.73679e-20)
(0.0273849 0.0582278 -2.44543e-20)
(0.0941532 0.0535185 4.19142e-20)
(0.185344 0.0502601 -6.61953e-20)
(0.30223 0.050591 7.87101e-21)
(0.442868 0.0543888 5.52541e-20)
(0.599775 0.0644042 -1.04788e-19)
(0.762106 0.0735472 8.21628e-20)
(0.916379 0.0886147 -6.65277e-20)
(1.03529 0.0930048 3.89847e-21)
(1.17943 0.109683 1.43285e-19)
(-0.0239734 0.0256173 -1.0861e-19)
(-0.0428021 0.0494913 -1.18933e-19)
(-0.0371275 0.0581514 -1.04537e-19)
(-0.00765863 0.0579529 -4.74085e-20)
(0.045691 0.054178 -8.44114e-20)
(0.124667 0.0502597 -1.1446e-19)
(0.231222 0.0488333 -4.76625e-20)
(0.365202 0.0519892 -1.96906e-20)
(0.521693 0.0596674 -1.40097e-19)
(0.688806 0.0723275 3.54924e-20)
(0.852989 0.0853466 1.34317e-21)
(0.997446 0.0986712 6.9121e-20)
(1.10942 0.105667 -5.06805e-20)
(1.21979 0.117205 1.42611e-20)
(-0.0249013 0.0249779 1.09468e-19)
(-0.0424494 0.0471534 7.22074e-20)
(-0.0326662 0.0545915 1.93426e-19)
(0.00380153 0.0537344 -1.96124e-20)
(0.0674527 0.050164 4.31169e-20)
(0.160242 0.04748 -5.06242e-20)
(0.283535 0.0485294 7.49887e-20)
(0.434766 0.0551529 -5.10821e-21)
(0.604854 0.066948 1.27405e-20)
(0.777709 0.0821515 5.02083e-20)
(0.937534 0.0976422 -2.31143e-20)
(1.06901 0.108938 -7.40277e-20)
(1.16873 0.117439 -6.65768e-21)
(1.24802 0.122782 -1.09022e-19)
(-0.0257598 0.0242692 -1.48565e-19)
(-0.0415479 0.0446101 1.11146e-19)
(-0.0268758 0.0508173 -1.69819e-19)
(0.0177116 0.0494227 1.63395e-19)
(0.0931408 0.046375 2.03407e-20)
(0.201345 0.0454703 -1.24116e-20)
(0.342339 0.0496969 -1.19818e-19)
(0.50993 0.0603238 -8.29226e-20)
(0.690037 0.0761097 7.90852e-20)
(0.863292 0.0933742 2.02259e-20)
(1.01342 0.109838 1.87814e-20)
(1.12971 0.119008 1.18924e-19)
(1.21368 0.127889 -6.65098e-20)
(1.26646 0.125987 9.2285e-21)
(-0.0265176 0.0234832 -1.44661e-20)
(-0.0399907 0.0418751 -1.02158e-19)
(-0.019538 0.0468844 1.89832e-19)
(0.0344232 0.0451377 -5.79758e-20)
(0.123201 0.0430227 -3.29494e-20)
(0.248289 0.0445413 1.56101e-19)
(0.40728 0.0526398 -2.09008e-20)
(0.589096 0.067572 1.1046e-19)
(0.774571 0.0868371 -8.27793e-20)
(0.942777 0.105367 -2.3641e-20)
(1.07929 0.121468 -2.10001e-20)
(1.17918 0.12861 -1.00245e-19)
(1.24586 0.136355 5.04905e-20)
(1.27878 0.126821 -4.95386e-21)
(-0.0271431 0.0226159 5.27892e-20)
(-0.037655 0.0389573 -6.87702e-20)
(-0.0104223 0.0428523 1.89108e-20)
(0.0542888 0.0410122 4.57701e-20)
(0.158026 0.0403399 4.33632e-20)
(0.301167 0.0450057 -1.07824e-19)
(0.477523 0.0575675 5.51878e-20)
(0.670174 0.0767634 5.5267e-21)
(0.855801 0.0986682 9.21588e-20)
(1.01416 0.117515 3.17265e-21)
(1.13466 0.13226 4.98293e-20)
(1.21784 0.137425 6.81526e-20)
(1.26781 0.142315 1.9875e-21)
(1.29472 0.132651 9.12379e-20)
(-0.0276011 0.0216594 -5.39626e-20)
(-0.0344089 0.0358645 1.03938e-19)
(0.00071179 0.0387879 1.00195e-19)
(0.0776511 0.0371931 -8.0355e-20)
(0.197913 0.0385785 -8.11643e-20)
(0.359765 0.0471501 -5.85636e-20)
(0.551743 0.0645459 4.2709e-20)
(0.750825 0.087577 3.07861e-20)
(0.931455 0.111082 2.20392e-20)
(1.07633 0.129325 -2.84791e-20)
(1.17981 0.142082 1.59002e-20)
(1.24681 0.145066 -2.46852e-20)
(1.28371 0.147622 4.63614e-20)
(1.30283 0.136831 -5.14718e-21)
(-0.0278455 0.0206011 1.51891e-19)
(-0.0301161 0.0326116 -8.20657e-20)
(0.0141083 0.0347653 1.03335e-19)
(0.104827 0.0338432 -1.69431e-20)
(0.243021 0.0380031 2.07969e-20)
(0.423509 0.0511952 1.21572e-19)
(0.628205 0.0734703 6.00663e-20)
(0.82876 0.0995686 1.15721e-20)
(0.999889 0.123589 -6.5764e-20)
(1.12896 0.140464 3.16868e-20)
(1.21552 0.150845 8.08412e-21)
(1.26793 0.151714 -2.6806e-20)
(1.29392 0.152073 -5.18051e-21)
(1.30673 0.140629 -8.28076e-20)
(-0.0278247 0.0194299 9.02768e-20)
(-0.0246325 0.0292178 2.91742e-20)
(0.0300107 0.0308678 -2.43374e-19)
(0.136091 0.0311438 -1.02598e-20)
(0.29332 0.0388768 9.27276e-20)
(0.491436 0.0572526 1.33754e-20)
(0.704953 0.0840768 -5.63156e-20)
(0.902021 0.112255 1.14098e-20)
(1.06017 0.135797 -4.45119e-20)
(1.17239 0.150739 -4.26198e-21)
(1.24296 0.158586 -2.42395e-20)
(1.28264 0.157462 -1.1057e-20)
(1.29997 0.155943 -4.86674e-20)
(1.30798 0.143928 8.0291e-21)
(-0.0274826 0.0181377 3.95154e-20)
(-0.0178072 0.025708 5.33992e-20)
(0.0486562 0.0271906 1.68792e-19)
(0.171651 0.029296 1.54564e-19)
(0.348538 0.0414367 -1.34657e-19)
(0.562239 0.0652943 -1.51538e-19)
(0.780031 0.0959912 -5.80987e-20)
(0.969155 0.125189 -6.10684e-20)
(1.11199 0.147428 1.89295e-20)
(1.20733 0.160075 -3.1539e-20)
(1.26338 0.165394 -2.49049e-20)
(1.29234 0.162473 -1.96652e-21)
(1.30294 0.159359 -2.25814e-20)
(1.30713 0.146922 5.80172e-20)
(-0.0267591 0.0167198 -1.42867e-19)
(-0.00948571 0.0221153 1.84277e-19)
(0.0702694 0.023844 -1.27102e-19)
(0.211621 0.0285198 -1.11958e-19)
(0.408125 0.0458604 -2.82835e-20)
(0.634372 0.0751512 1.34813e-19)
(0.851702 0.108797 -5.15666e-20)
(1.02927 0.138006 -2.92757e-20)
(1.15555 0.158318 2.14098e-20)
(1.23476 0.168483 5.84252e-20)
(1.27804 0.171391 1.44957e-20)
(1.29819 0.166896 -2.27129e-20)
(1.30363 0.162448 1.73965e-20)
(1.30501 0.149693 -1.27053e-20)
(-0.0255904 0.0151759 2.36744e-19)
(0.000488015 0.0184833 -1.80507e-19)
(0.0950535 0.0209567 1.25651e-19)
(0.255989 0.0290451 -3.04055e-20)
(0.471252 0.0522319 5.68132e-20)
(0.706213 0.086543 4.39237e-20)
(0.918595 0.122097 -7.66657e-22)
(1.08197 0.150438 -3.55822e-20)
(1.19142 0.168394 -2.08538e-20)
(1.25574 0.176031 3.23035e-20)
(1.28806 0.176712 1.6152e-20)
(1.30114 0.170872 2.90492e-20)
(1.30272 0.165308 5.5731e-20)
(1.30198 0.152335 -2.3428e-20)
(-0.0239103 0.013511 -2.04699e-19)
(0.0122688 0.0148678 1.5009e-19)
(0.123179 0.0186795 2.18397e-20)
(0.304579 0.0310952 7.81899e-20)
(0.53685 0.0605208 -5.08352e-21)
(0.776223 0.0991298 2.38446e-20)
(0.979764 0.13555 1.12756e-19)
(1.12731 0.162311 6.43666e-20)
(1.22033 0.17765 3.11509e-20)
(1.2713 0.182817 -1.11145e-19)
(1.29444 0.18149 -1.94639e-20)
(1.30194 0.174522 -1.43384e-20)
(1.30066 0.16802 -1.01415e-22)
(1.29836 0.154898 2.92068e-21)
(-0.0216505 0.011736 5.34939e-20)
(0.0260074 0.011339 -2.52089e-19)
(0.15477 0.0171872 -7.14898e-20)
(0.357031 0.0348596 5.50599e-20)
(0.603694 0.070586 -5.2342e-20)
(0.843082 0.112564 -2.9739e-21)
(1.03468 0.148893 5.17085e-20)
(1.16561 0.173531 -6.74518e-20)
(1.24314 0.18613 -6.51235e-20)
(1.28241 0.188955 4.27981e-20)
(1.29799 0.185849 4.97977e-21)
(1.30117 0.177945 2.73455e-20)
(1.29781 0.170642 -8.35873e-21)
(1.29434 0.157427 1.92036e-20)
(-0.0187421 0.00986788 -1.01105e-19)
(0.0418468 0.00798288 2.27497e-19)
(0.189884 0.016677 -8.45924e-20)
(0.412787 0.0404652 -1.13621e-19)
(0.670511 0.082203 1.07287e-20)
(0.905763 0.126528 -9.88511e-22)
(1.08315 0.161936 5.29668e-20)
(1.19741 0.184062 8.00781e-20)
(1.2607 0.193908 1.03089e-19)
(1.28993 0.194562 -2.15104e-21)
(1.2994 0.189897 2.18615e-21)
(1.29927 0.181218 -3.18052e-20)
(1.29439 0.173218 -1.19848e-20)
(1.29004 0.159945 -3.05966e-21)
(-0.0151163 0.00793033 7.48825e-20)
(0.0599183 0.00490302 5.22404e-20)
(0.228491 0.0173614 1.15953e-19)
(0.471114 0.0479544 1.2666e-19)
(0.73609 0.0951032 -1.5517e-20)
(0.963554 0.140755 2.28846e-20)
(1.12528 0.174552 -6.38731e-20)
(1.22335 0.193914 6.3459e-20)
(1.27384 0.201072 -1.59304e-20)
(1.29458 0.199746 -3.84345e-20)
(1.29917 0.193726 1.57513e-20)
(1.29654 0.184401 -9.43847e-21)
(1.29058 0.175779 1.16625e-20)
(1.28555 0.162472 6.12486e-21)
(-0.0107055 0.00595338 -6.53251e-21)
(0.0803355 0.00222241 -9.37795e-20)
(0.270454 0.0194534 -1.13335e-19)
(0.531146 0.0572802 -3.46779e-20)
(0.799368 0.109012 5.36169e-20)
(1.01604 0.155036 -1.10555e-20)
(1.16136 0.186672 -3.01344e-20)
(1.2441 0.20313 2.55022e-20)
(1.28329 0.207719 8.06843e-20)
(1.29696 0.204607 5.7865e-20)
(1.29772 0.197411 -1.66695e-20)
(1.29321 0.187538 1.00014e-20)
(1.28647 0.178346 -4.27778e-21)
(1.28092 0.165016 -3.04294e-22)
(-0.00544443 0.00397352 -4.76236e-20)
(0.103187 8.44139e-05 -1.28053e-19)
(0.315516 0.0231458 1.38602e-19)
(0.591947 0.0683186 -3.39792e-20)
(0.859481 0.123674 3.16162e-21)
(1.06305 0.169213 2.13391e-21)
(1.19181 0.198267 8.23455e-21)
(1.26035 0.21177 -7.51899e-20)
(1.28971 0.213943 1.9321e-20)
(1.29759 0.209231 3.52391e-20)
(1.29535 0.201009 -2.22097e-20)
(1.28944 0.190661 1.20561e-20)
(1.28213 0.180932 2.31478e-21)
(1.27617 0.167584 2.58318e-21)
(0.000729423 0.00203379 9.88191e-21)
(0.128527 -0.00134741 5.83394e-20)
(0.363299 0.028589 9.8054e-20)
(0.652578 0.0808944 -1.77951e-20)
(0.915787 0.138869 7.27709e-20)
(1.10461 0.183178 2.98984e-20)
(1.21711 0.209339 6.83787e-20)
(1.27273 0.219904 5.67038e-20)
(1.29367 0.219833 -5.83955e-20)
(1.29684 0.213692 -3.09818e-20)
(1.29229 0.204567 -2.68077e-20)
(1.28534 0.193791 -8.08037e-21)
(1.27761 0.183546 -1.0766e-21)
(1.27132 0.170178 -2.22512e-21)
(0.00787457 0.000184071 1.57116e-20)
(0.156366 -0.00189199 2.55446e-20)
(0.413309 0.0358737 -2.47714e-19)
(0.712157 0.0948083 8.27863e-20)
(0.967849 0.154414 -6.62373e-20)
(1.1409 0.196858 -3.14096e-20)
(1.2378 0.219912 -3.80043e-20)
(1.28182 0.227608 -1.91398e-20)
(1.29564 0.225468 -3.56356e-20)
(1.29502 0.218046 5.10379e-20)
(1.2887 0.208116 6.06065e-21)
(1.28097 0.19694 3.45416e-21)
(1.27294 0.18619 4.02398e-23)
(1.26637 0.172797 -2.89357e-21)
(0.0160447 -0.00151835 2.2047e-20)
(0.186659 -0.0013567 -4.4919e-20)
(0.464968 0.0450239 8.54253e-20)
(0.769906 0.10986 -7.50086e-20)
(1.01542 0.170165 -9.99618e-20)
(1.1722 0.210211 -5.05338e-20)
(1.25439 0.230025 -6.25185e-20)
(1.28815 0.234957 2.45787e-20)
(1.296 0.230917 1.37696e-20)
(1.29236 0.222342 -2.29504e-20)
(1.28469 0.21168 6.41914e-22)
(1.27638 0.200116 -2.28227e-21)
(1.26813 0.188867 -3.68058e-21)
(1.26133 0.175438 7.7117e-21)
(0.0252873 -0.0030081 -1.03881e-19)
(0.219297 0.000452978 7.22724e-20)
(0.517639 0.0560014 -5.56675e-20)
(0.825177 0.125861 9.34613e-21)
(1.0584 0.186006 1.36245e-19)
(1.19884 0.223218 3.559e-20)
(1.26738 0.239726 1.04199e-19)
(1.29216 0.242021 -3.63768e-20)
(1.29506 0.236239 3.92011e-21)
(1.28904 0.226612 2.03576e-20)
(1.28035 0.215272 -5.73981e-21)
(1.2716 0.203321 -4.13097e-22)
(1.26318 0.191573 1.74534e-21)
(1.25619 0.178099 -2.54507e-21)
(0.0356415 -0.00421129 9.48371e-20)
(0.254104 0.00372091 1.37109e-20)
(0.570664 0.0687185 3.72436e-20)
(0.877459 0.142646 -3.58264e-20)
(1.09681 0.201851 -2.87592e-20)
(1.22119 0.235878 -4.35244e-20)
(1.27722 0.249068 2.63888e-20)
(1.29424 0.248863 3.03344e-20)
(1.29307 0.24148 -1.08045e-20)
(1.28519 0.230883 -9.03234e-21)
(1.27573 0.218901 3.43125e-21)
(1.26665 0.206555 -2.06908e-21)
(1.2581 0.194307 1.63012e-20)
(1.25096 0.180774 1.30785e-20)
(0.0471355 -0.00504543 4.80135e-20)
(0.290839 0.00860704 -8.51274e-20)
(0.623396 0.0830543 1.04498e-19)
(0.926375 0.160068 2.84597e-20)
(1.13076 0.217634 -6.99113e-21)
(1.23963 0.248203 -3.78859e-20)
(1.28434 0.258102 -6.66454e-20)
(1.29471 0.255538 -3.65724e-20)
(1.29023 0.246677 2.49943e-20)
(1.2809 0.235172 -5.91044e-21)
(1.27085 0.22257 -1.48599e-21)
(1.26152 0.209814 6.36e-21)
(1.25289 0.197064 -9.9844e-21)
(1.24562 0.183458 7.14921e-21)
(0.0597831 -0.00542021 -9.06297e-20)
(0.329198 0.0152358 -1.18925e-19)
(0.675225 0.0988694 1.2473e-20)
(0.97167 0.178002 1.86625e-20)
(1.16043 0.233305 3.63751e-20)
(1.25453 0.260211 -1.27186e-20)
(1.28911 0.266879 -9.63373e-21)
(1.29383 0.262093 3.33866e-20)
(1.28668 0.251857 -7.3587e-22)
(1.27622 0.239486 -8.3204e-22)
(1.26575 0.226276 1.5281e-23)
(1.25623 0.213092 -2.38986e-21)
(1.24755 0.199838 -1.91958e-20)
(1.24018 0.186143 -1.44367e-20)
(0.0735799 -0.00523925 -1.33804e-21)
(0.368829 0.0236888 1.33813e-19)
(0.7256 0.116017 5.554e-20)
(1.01319 0.196341 -5.78299e-20)
(1.18603 0.248829 3.41198e-20)
(1.26625 0.271925 2.46892e-20)
(1.29184 0.275445 1.64486e-20)
(1.29181 0.268565 -2.94525e-20)
(1.28252 0.257039 -9.88558e-21)
(1.27121 0.243832 3.10038e-21)
(1.26042 0.230017 -3.19841e-22)
(1.25077 0.216384 6.72775e-21)
(1.24207 0.202623 1.09828e-20)
(1.23462 0.188824 4.54027e-21)
(0.0885001 -0.00440287 2.41694e-20)
(0.409343 0.034002 -1.01953e-20)
(0.77404 0.134349 -1.08188e-19)
(1.05087 0.214991 -3.6821e-20)
(1.20781 0.264181 -7.427e-20)
(1.27513 0.283373 1.50045e-20)
(1.29281 0.28384 5.47422e-21)
(1.28883 0.274983 8.84578e-21)
(1.27785 0.262233 -2.4038e-21)
(1.26589 0.248206 8.03055e-22)
(1.25488 0.233783 2.38053e-21)
(1.24514 0.219679 -2.55071e-21)
(1.23645 0.205411 7.99288e-23)
(1.22893 0.19149 1.37851e-20)
(0.104494 -0.00281183 4.44742e-20)
(0.450327 0.0461684 -7.41185e-20)
(0.820138 0.153722 8.16321e-21)
(1.08472 0.23387 5.09655e-20)
(1.22601 0.279342 5.95838e-20)
(1.28146 0.294578 -3.46911e-20)
(1.29226 0.292096 1.59601e-20)
(1.28501 0.281368 6.91688e-22)
(1.27271 0.267443 -1.08576e-21)
(1.26028 0.252605 9.19853e-22)
(1.24912 0.237567 -6.12897e-21)
(1.23933 0.22297 -1.03192e-20)
(1.23068 0.208195 4.69281e-21)
(1.22313 0.194135 -1.46582e-20)
(0.121487 -0.000371661 3.89294e-20)
(0.491363 0.0601433 2.67652e-20)
(0.863568 0.173997 5.59023e-20)
(1.11477 0.252902 -2.00476e-20)
(1.24089 0.294299 -2.42308e-20)
(1.28552 0.305564 2.1072e-20)
(1.29038 0.300242 -1.71113e-20)
(1.28047 0.287732 -1.16004e-20)
(1.26716 0.27267 2.37841e-21)
(1.25439 0.257021 3.55272e-21)
(1.24314 0.241357 9.76244e-21)
(1.23335 0.226246 1.33502e-20)
(1.22476 0.210965 -1.33536e-20)
(1.21719 0.196749 3.70089e-21)
(0.13938 0.00300284 -4.98609e-20)
(0.532035 0.0758506 2.17196e-20)
(0.904075 0.195042 -3.9797e-20)
(1.14112 0.272018 -7.91836e-21)
(1.25269 0.30904 2.8258e-20)
(1.28755 0.31635 1.33338e-21)
(1.28734 0.308295 -1.09132e-21)
(1.27527 0.29408 3.55569e-21)
(1.2612 0.277906 -2.01814e-22)
(1.24821 0.261442 -2.66511e-21)
(1.23694 0.245141 -6.17843e-21)
(1.22719 0.229497 -1.10604e-20)
(1.21869 0.213712 2.65842e-21)
(1.21113 0.199323 4.61592e-21)
(0.158051 0.00738353 2.83721e-21)
(0.571946 0.09319 1.42835e-20)
(0.941472 0.21673 -2.38543e-20)
(1.16389 0.291155 -5.07886e-21)
(1.26165 0.323559 -4.94367e-21)
(1.28775 0.326952 -2.57852e-21)
(1.28325 0.316267 -2.51097e-21)
(1.26949 0.300412 -2.8746e-21)
(1.25488 0.283142 -3.84565e-22)
(1.24176 0.265857 -2.58613e-21)
(1.23052 0.248906 8.02684e-22)
(1.22083 0.232712 5.61106e-22)
(1.21246 0.216426 1.29547e-20)
(1.20492 0.201845 -7.38215e-21)
(0.177358 0.0128256 2.44977e-21)
(0.61072 0.112042 -5.75268e-21)
(0.975631 0.238939 1.34475e-20)
(1.1832 0.310249 8.17287e-21)
(1.268 0.337844 -2.52305e-21)
(1.28632 0.337379 -4.02403e-22)
(1.27824 0.324164 1.63821e-21)
(1.26316 0.306722 1.35381e-22)
(1.24818 0.288365 3.94326e-23)
(1.23504 0.270249 1.98466e-21)
(1.22387 0.252636 9.13166e-23)
(1.21429 0.235878 2.79761e-22)
(1.20607 0.219095 -5.12355e-21)
(1.19858 0.204305 -3.27101e-21)
(0.19714 0.0193655 2.10738e-21)
(0.648012 0.132274 -4.62822e-21)
(1.00647 0.261555 1.24704e-20)
(1.19921 0.329243 7.92511e-21)
(1.27193 0.351885 -2.02938e-21)
(1.28342 0.347638 -5.37937e-22)
(1.27238 0.331985 9.82788e-22)
(1.25632 0.312999 1.10617e-22)
(1.24112 0.293559 3.25761e-22)
(1.22802 0.274603 2.79795e-21)
(1.21698 0.256317 -3.48134e-23)
(1.20756 0.238983 -7.49537e-23)
(1.19952 0.221709 -5.80984e-21)
(1.19211 0.206693 -3.31782e-21)
(0.217226 0.0270199 -5.95093e-22)
(0.683514 0.153741 1.44975e-20)
(1.03397 0.284465 -2.24979e-20)
(1.21207 0.348077 -6.54624e-21)
(1.27363 0.365671 -1.0453e-21)
(1.27916 0.357726 -2.91479e-21)
(1.26574 0.339722 -1.50821e-21)
(1.24898 0.319227 9.09453e-22)
(1.23371 0.298706 -2.55924e-21)
(1.22073 0.278901 -6.21706e-21)
(1.20986 0.259934 3.35842e-21)
(1.20063 0.242015 6.64956e-22)
(1.19281 0.224253 1.31147e-20)
(1.18551 0.208998 -7.61297e-21)
(0.237433 0.0357863 -5.41945e-20)
(0.716955 0.17629 2.56303e-20)
(1.05811 0.307559 -4.52294e-20)
(1.22192 0.366697 -4.93625e-21)
(1.27328 0.379187 2.71216e-20)
(1.27368 0.367639 -2.53355e-21)
(1.25838 0.347362 -1.17465e-23)
(1.24116 0.32539 -1.07919e-21)
(1.22594 0.303787 5.14412e-21)
(1.21314 0.283125 -1.14097e-20)
(1.20249 0.263469 -1.51167e-20)
(1.1935 0.244958 -1.84447e-20)
(1.18593 0.226715 9.06284e-21)
(1.17878 0.211208 1.09731e-20)
(0.257576 0.0456434 3.09352e-20)
(0.748102 0.199764 2.8839e-20)
(1.07893 0.330733 5.57316e-20)
(1.22893 0.385047 -8.90898e-21)
(1.27103 0.392413 -2.63089e-20)
(1.26707 0.377365 1.40303e-20)
(1.25033 0.354889 -2.50055e-21)
(1.23288 0.331463 7.71699e-21)
(1.21781 0.308779 -1.32068e-20)
(1.20527 0.287255 1.21789e-20)
(1.19489 0.266905 2.83426e-20)
(1.18617 0.2478 3.12975e-20)
(1.17889 0.229079 -2.58082e-20)
(1.17192 0.213313 2.04089e-21)
(0.277465 0.0565533 3.92199e-20)
(0.776762 0.223999 -7.39092e-20)
(1.09647 0.353881 -8.7533e-22)
(1.23325 0.403072 5.00112e-20)
(1.26702 0.40533 3.57347e-20)
(1.25941 0.386888 -1.08905e-20)
(1.24163 0.362282 1.65495e-21)
(1.22414 0.337425 -1.00947e-21)
(1.20933 0.313659 8.54937e-21)
(1.1971 0.291271 1.39069e-20)
(1.18705 0.270226 -1.95387e-20)
(1.17865 0.250526 -3.02311e-20)
(1.17169 0.23133 1.5384e-20)
(1.16492 0.215301 -2.95433e-20)
(0.296912 0.0684635 3.31158e-20)
(0.802781 0.248833 -1.33266e-20)
(1.11082 0.3769 -1.02881e-19)
(1.23502 0.420719 -3.15862e-20)
(1.26137 0.417913 -5.52406e-20)
(1.25076 0.396187 8.421e-21)
(1.2323 0.369516 -1.04882e-22)
(1.21495 0.343249 -5.06645e-21)
(1.20048 0.318403 -1.35316e-21)
(1.18864 0.295152 -2.11267e-20)
(1.17896 0.273413 1.18302e-20)
(1.17093 0.25312 -7.60946e-22)
(1.16433 0.233462 -2.17895e-21)
(1.15774 0.21716 2.37669e-20)
(0.315737 0.081308 -1.96159e-21)
(0.82604 0.274099 1.72695e-19)
(1.12203 0.399689 4.255e-20)
(1.23439 0.437936 -3.39518e-20)
(1.2542 0.430134 1.21104e-20)
(1.2412 0.405237 6.11312e-21)
(1.22238 0.376562 -3.34175e-21)
(1.20531 0.348906 2.98295e-20)
(1.19129 0.322988 3.52164e-20)
(1.17989 0.298877 -5.11031e-20)
(1.17063 0.276448 4.96626e-21)
(1.163 0.255565 2.77255e-20)
(1.15683 0.235477 4.21854e-20)
(1.15037 0.218885 1.72358e-20)
(0.333763 0.0950093 -9.12707e-20)
(0.846456 0.299636 -1.63828e-19)
(1.13022 0.422147 6.28175e-21)