/*--------------------------------*- C++ -*----------------------------------*\
  =========                 |
  \\      /  F ield         | OpenFOAM: The Open Source CFD Toolbox
   \\    /   O peration     | Website:  https://openfoam.org
    \\  /    A nd           | Version:  7
     \\/     M anipulation  |
\*---------------------------------------------------------------------------*/
FoamFile
{
    version     2.0;
    format      ascii;
    class       surfaceScalarField;
    location    "20";
    object      phi;
}
// * * * * * * * * * * * * * * * * * * * * * * * * * * * * * * * * * * * * * //

dimensions      [0 3 -1 0 0 0 0];

internalField   nonuniform List<scalar> 
25237
(
-7.50976e-06
7.60385e-06
-9.40954e-08
-2.67451e-05
1.94666e-05
-2.313e-07
-5.57896e-05
2.93801e-05
-3.35562e-07
-9.27922e-05
3.74135e-05
-4.10888e-07
-0.000136091
4.37632e-05
-4.6435e-07
-0.000184354
4.87673e-05
-5.04587e-07
-0.000236736
5.29222e-05
-5.39573e-07
-0.000293094
5.69323e-05
-5.74683e-07
-0.000354158
6.16751e-05
-6.11615e-07
6.83103e-05
-6.47391e-07
-0.00042182
-7.4133e-06
1.50172e-05
-2.64142e-05
3.84676e-05
-5.5101e-05
5.80669e-05
-9.16196e-05
7.39321e-05
-0.000134286
8.64298e-05
-0.000181723
9.62037e-05
-0.00023301
0.00010421
-0.000287906
0.000111828
-0.000347032
0.000120801
0.000133422
-0.000412143
-7.22542e-06
2.22426e-05
-2.57677e-05
5.70098e-05
-5.37517e-05
8.60508e-05
-8.93171e-05
0.000109498
-0.000130736
0.000127849
-0.00017654
0.000142007
-0.000225662
0.000153332
-0.000277662
0.000163828
-0.000332946
0.000176085
0.000193459
-0.000392983
-6.95381e-06
2.91964e-05
-2.48281e-05
7.48841e-05
-5.17831e-05
0.000113006
-8.59477e-05
0.000143662
-0.000125529
0.00016743
-0.000168924
0.000185403
-0.000214848
0.000199256
-0.000262561
0.000211541
-0.000312151
0.000225675
0.000245937
-0.000364629
-6.60935e-06
3.58057e-05
-2.36275e-05
9.19023e-05
-4.92537e-05
0.000138632
-8.15992e-05
0.000176008
-0.000118786
0.000204617
-0.000159039
0.000225655
-0.000200781
0.000240998
-0.000242872
0.000253632
-0.000284985
0.000267788
0.000288391
-0.000327438
-6.2054e-06
4.20111e-05
-2.22049e-05
0.000107902
-4.6234e-05
0.000162661
-7.63767e-05
0.00020615
-0.000110652
0.000238892
-0.000147072
0.000262076
-0.000183704
0.00027763
-0.000218896
0.000288824
-0.000251807
0.000300699
0.000318333
-0.00028175
-5.75689e-06
4.7768e-05
-2.06038e-05
0.000122749
-4.28011e-05
0.000184858
-7.03927e-05
0.000233742
-0.000101274
0.000269773
-0.000133215
0.000294017
-0.000163858
0.000308273
-0.000190911
0.000315877
-0.000212932
0.00032272
0.000333187
-0.000227787
-5.27937e-06
5.30474e-05
-1.88685e-05
0.000136338
-3.90323e-05
0.000205022
-6.37554e-05
0.000258465
-9.07893e-05
0.000296807
-0.000117629
0.000320857
-0.00014143
0.000332073
-0.000159115
0.000333563
-0.000168524
0.000332129
0.000330225
-0.000165562
-4.78806e-06
5.78354e-05
-1.70417e-05
0.000148592
-3.49985e-05
0.000222979
-5.65567e-05
0.000280023
-7.92989e-05
0.000319549
-0.000100413
0.00034197
-0.000116504
0.000348164
-0.000123533
0.000340592
-0.000118464
0.00032706
0.00030668
-9.49185e-05
-4.29692e-06
6.21324e-05
-1.51606e-05
0.000159455
-3.07569e-05
0.000238575
-4.88597e-05
0.000298126
-6.68475e-05
0.000337537
-8.15617e-05
0.000356685
-8.90029e-05
0.000355606
-8.39244e-05
0.000335514
-6.19118e-05
0.000305047
0.000261794
-1.7026e-05
-3.81788e-06
6.59502e-05
-1.32547e-05
0.000168892
-2.63456e-05
0.000251666
-4.06868e-05
0.000312467
-5.34022e-05
0.000350253
-6.09352e-05
0.000364218
-5.86476e-05
0.000353318
-3.99666e-05
0.000316833
4.71198e-06
0.000260369
0.000191198
7.53082e-05
-3.36017e-06
6.93104e-05
-1.13432e-05
0.000176875
-2.17782e-05
0.000262101
-3.201e-05
0.000322699
-3.88329e-05
0.000357075
-3.82104e-05
0.000363595
-2.47792e-05
0.000339887
8.48541e-06
0.000283568
7.4054e-05
0.0001948
8.49085e-05
0.000180343
-2.9298e-06
7.22402e-05
-9.43292e-06
0.000183378
-1.70399e-05
0.000269708
-2.27452e-05
0.000328404
-2.28996e-05
0.00035723
-1.28615e-05
0.000353557
1.37092e-05
0.000313316
6.5769e-05
0.000231508
0.000156975
0.000103594
-5.96524e-05
0.000301536
-2.52903e-06
7.47692e-05
-7.51691e-06
0.000188366
-1.20849e-05
0.000274276
-1.27504e-05
0.00032907
-5.26123e-06
0.000349741
1.58237e-05
0.000332472
5.79107e-05
0.000271229
0.000131672
0.000157747
0.000254912
-1.96455e-05
-0.000247352
0.000442611
-2.15561e-06
7.69249e-05
-5.57186e-06
0.000191782
-6.83332e-06
0.000275538
-1.82014e-06
0.000324057
1.45236e-05
0.000333397
4.87195e-05
0.000298276
0.000109569
0.00021038
0.000209379
5.79364e-05
0.00037161
-0.000181877
-0.00048235
0.000606608
-1.80197e-06
7.87268e-05
-3.55532e-06
0.000193536
-1.15854e-06
0.000273141
1.03038e-05
0.000312594
3.69861e-05
0.000306715
8.68176e-05
0.000248445
0.000170393
0.000126804
0.000301693
-7.33633e-05
0.000510821
-0.000391005
-0.000766571
0.000795042
-1.4541e-06
8.01809e-05
-1.39785e-06
0.000193479
5.07678e-06
0.000266666
2.39593e-05
0.000293712
6.27477e-05
0.000267926
0.000131194
0.000179999
0.000242149
1.58485e-05
0.000411378
-0.000242592
0.000674992
-0.000654619
-0.00109823
0.00100665
-1.09192e-06
8.12729e-05
9.77934e-07
0.00019141
1.21048e-05
0.000255539
3.95566e-05
0.00026626
9.25173e-05
0.000214965
0.000182969
8.95467e-05
0.000326463
-0.000127645
0.000540982
-0.000457111
0.000864031
-0.000977667
-0.00147075
0.00123655
-6.91584e-07
8.19644e-05
3.67098e-06
0.000187047
2.01859e-05
0.000239024
5.75872e-05
0.000228859
0.000127087
0.000145465
0.000243265
-2.6631e-05
0.000424608
-0.000308988
0.00069234
-0.000724843
0.00107473
-0.00136006
-0.00187591
0.00147989
-1.86587e-07
8.2151e-05
6.86669e-06
0.000179994
2.96438e-05
0.000216247
7.86179e-05
0.000179885
0.000167305
5.67785e-05
0.0003131
-0.000172426
0.000537174
-0.000533062
0.000864457
-0.00105213
0.00130301
-0.0017986
-0.00232124
0.00174834
4.5516e-07
8.16959e-05
1.07184e-05
0.00016973
4.08405e-05
0.000186125
0.000103265
0.00011746
0.000214016
-5.39726e-05
0.000393251
-0.00035166
0.00066374
-0.000803552
0.00105079
-0.00143917
0.00154
-0.00228781
-0.00303897
0.00225772
1.26795e-06
8.04279e-05
1.54052e-05
0.000155593
5.41562e-05
0.000147374
0.000132146
3.94705e-05
0.000267969
-0.000189796
0.000484083
-0.000567775
0.000803043
-0.00112251
0.00124361
-0.00187973
0.00178028
-0.00282449
-0.00374346
0.00248477
2.328e-06
7.80999e-05
2.11105e-05
0.000136811
6.99548e-05
9.85299e-05
0.000165796
-5.63704e-05
0.000329648
-0.000353648
0.000585234
-0.000823361
0.000952328
-0.00148961
0.00143669
-0.00236409
0.00200576
-0.00339355
-0.00441431
0.00267661
3.68195e-06
7.4418e-05
2.79983e-05
0.000112494
8.85403e-05
3.79879e-05
0.000204576
-0.000172406
0.000399074
-0.000548146
0.000695255
-0.00111954
0.00110656
-0.00190091
0.00162229
-0.00287983
0.00219897
-0.00397023
-0.00503769
0.00282235
5.37238e-06
6.90456e-05
3.61988e-05
8.16679e-05
0.000110115
-3.59279e-05
0.000248572
-0.000310863
0.0004756
-0.000775174
0.000811367
-0.00145531
0.00125884
-0.00234839
0.00178974
-0.00341072
0.00235107
-0.00453156
-0.00560059
0.00291396
7.4322e-06
6.16134e-05
4.57957e-05
4.33045e-05
0.000134743
-0.000124875
0.000297522
-0.000473642
0.000557779
-0.00103543
0.000929415
-0.00182694
0.00140134
-0.00282031
0.00192951
-0.00393889
0.00245699
-0.00505904
-0.00609662
0.00295302
9.8829e-06
5.17305e-05
5.6819e-05
-3.63163e-06
0.000162328
-0.000230385
0.000350753
-0.000662067
0.000643319
-0.001328
0.00104418
-0.00222781
0.00152647
-0.0033026
0.00203516
-0.00444758
0.00251638
-0.00554027
-0.00652589
0.00294565
1.2734e-05
3.89965e-05
6.92395e-05
-6.01371e-05
0.000192596
-0.000353741
0.000407162
-0.000876633
0.000729174
-0.00165001
0.00115002
-0.00264866
0.00162807
-0.00378065
0.00210394
-0.00492344
0.00253257
-0.0059689
-0.00689266
0.00289934
1.59828e-05
2.30137e-05
8.29648e-05
-0.000127119
0.000225081
-0.000495858
0.00046522
-0.00111677
0.000811773
-0.00199656
0.00124169
-0.00307857
0.00170224
-0.0042412
0.00213632
-0.00535753
0.00251098
-0.00634356
-0.00720363
0.00282194
1.9614e-05
3.39975e-06
9.78361e-05
-0.000205341
0.000259124
-0.000657146
0.000523023
-0.00138067
0.000887399
-0.00236094
0.00131505
-0.00350622
0.00174749
-0.00467364
0.00213515
-0.00574519
0.00245795
-0.00666635
-0.00746622
0.00272054
2.35981e-05
-2.01984e-05
0.000113626
-0.000295369
0.00029388
-0.0008374
0.000578411
-0.0016652
0.000952622
-0.00273515
0.00136749
-0.00392109
0.00176448
-0.00507063
0.00210461
-0.00608532
0.00237969
-0.00694143
-0.00768767
0.00260114
2.78916e-05
-4.809e-05
0.000130035
-0.000397512
0.000328336
-0.0010357
0.000629148
-0.00196601
0.0010047
-0.0031107
0.00139804
-0.00431443
0.00175536
-0.00542795
0.00204937
-0.00637933
0.00228185
-0.00717391
-0.0078744
0.00246858
3.24337e-05
-8.05237e-05
0.000146699
-0.000511777
0.000361366
-0.00125037
0.000673133
-0.00227778
0.00104181
-0.00347938
0.0014071
-0.00467972
0.00172319
-0.00574404
0.00197409
-0.00663024
0.00216921
-0.00736903
-0.00803177
0.00232659
3.7147e-05
-0.000117671
0.000163192
-0.000637822
0.000391794
-0.00147897
0.000708609
-0.0025946
0.00106316
-0.00383393
0.00139611
-0.00501268
0.00167139
-0.00601931
0.00188301
-0.00684186
0.00204568
-0.0075317
-0.00816409
0.002178
4.1938e-05
-0.000159609
0.000179046
-0.00077493
0.000418488
-0.00171841
0.000734313
-0.00291042
0.00106882
-0.00416843
0.00136716
-0.00531102
0.00160339
-0.00625554
0.00177981
-0.00701827
0.00191435
-0.00766624
-0.00827465
0.00202491
4.66993e-05
-0.000206308
0.000193774
-0.000922005
0.000440447
-0.00196508
0.000749542
-0.00321952
0.0010596
-0.0044785
0.00132266
-0.00557407
0.00152241
-0.0064553
0.00166756
-0.00716342
0.00177757
-0.00777626
-0.00836592
0.00186884
5.13129e-05
-0.000257621
0.000206892
-0.00107758
0.000456879
-0.00221507
0.000754137
-0.00351678
0.00103679
-0.00476115
0.00126507
-0.00580235
0.0014313
-0.00662153
0.00154878
-0.0072809
0.00163718
-0.00786465
-0.00843966
0.00171092
5.56555e-05
-0.000313276
0.000217954
-0.00123988
0.000467253
-0.00246437
0.000748408
-0.00379793
0.00100197
-0.00501471
0.00119679
-0.00599717
0.00133252
-0.00675726
0.00142545
-0.00737383
0.0014945
-0.00793371
-0.00849714
0.00155197
5.96037e-05
-0.00037288
0.000226579
-0.00140686
0.000471311
-0.0027091
0.000733018
-0.00405964
0.000956811
-0.00523851
0.00112
-0.00616036
0.00122811
-0.00686537
0.00129914
-0.00744485
0.00135057
-0.00798514
-0.0085392
0.00139264
6.30398e-05
-0.00043592
0.00023247
-0.00157629
0.000469059
-0.00294569
0.000708872
-0.00429945
0.000903018
-0.00543265
0.00103663
-0.00629397
0.00111978
-0.00694852
0.00117105
-0.00749612
0.00120615
-0.00802024
-0.00856648
0.00123342
6.58578e-05
-0.000501778
0.000235431
-0.00174586
0.000460727
-0.00317099
0.000677012
-0.00451574
0.000842195
-0.00559783
0.000948369
-0.00640015
0.00100889
-0.00700904
0.00104211
-0.00752934
0.0010618
-0.00803994
-0.00857937
0.00107469
6.79669e-05
-0.000569745
0.000235372
-0.00191327
0.00044672
-0.00338234
0.000638535
-0.00470755
0.000775812
-0.00573511
0.000856628
-0.00648097
0.000896534
-0.00704895
0.000913045
-0.00754585
0.000917994
-0.00804489
-0.0085781
0.000916727
6.92962e-05
-0.000639041
0.000232301
-0.00207627
0.000427563
-0.0035776
0.000594526
-0.00487451
0.000705185
-0.00584577
0.000762594
-0.00653837
0.000783575
-0.00706993
0.000784406
-0.00754668
0.000775066
-0.00803555
-0.0085628
0.00075977
6.97962e-05
-0.000708837
0.000226317
-0.00223279
0.000403855
-0.00375514
0.000546022
-0.00501668
0.000631465
-0.00593121
0.000667245
-0.00657415
0.000670697
-0.00707338
0.000656621
-0.0075326
0.000633304
-0.00801223
-0.00853349
0.000603996
6.94395e-05
-0.000778277
0.000217588
-0.00238094
0.000376225
-0.00391377
0.000493982
-0.00513444
0.000555644
-0.00599288
0.000571382
-0.00658989
0.000558444
-0.00706044
0.000530021
-0.00750418
0.000492934
-0.00797514
-0.0084901
0.000449539
6.822e-05
-0.000846497
0.000206341
-0.00251906
0.000345301
-0.00405273
0.000439271
-0.00522841
0.000478565
-0.00603217
0.000475666
-0.00658699
0.000447274
-0.00703205
0.000404919
-0.00746182
0.000354106
-0.00792433
-0.00843251
0.000296515
6.61522e-05
-0.000912649
0.000192833
-0.00264574
0.000311689
-0.00417159
0.000382656
-0.00529937
0.000400935
-0.00605045
0.000380632
-0.00656669
0.000337587
-0.00698901
0.000281708
-0.00740594
0.000216916
-0.00785954
-0.00836034
0.000144743
6.32699e-05
-0.000975919
0.000177353
-0.00275982
0.000275957
-0.00427019
0.000324807
-0.00534822
0.000323343
-0.00604899
0.000286702
-0.00653005
0.000229688
-0.00693199
0.000160781
-0.00733704
8.23259e-05
-0.00778108
-0.00826834
-9.66777e-06
5.96256e-05
-0.00103554
0.000160213
-0.00286041
0.000238631
-0.00434861
0.000266306
-0.0053759
0.000246272
-0.00602895
0.000194212
-0.00647799
0.000123764
-0.00686155
4.16898e-05
-0.00725496
-4.87797e-05
-0.00769061
-0.00816721
-0.000149909
5.52841e-05
-0.00109083
0.000141704
-0.00294683
0.000200188
-0.0044071
0.000207648
-0.00538336
0.000170118
-0.00599142
0.000103434
-0.00641131
1.96938e-05
-0.00677781
-7.4426e-05
-0.00716084
-0.000179012
-0.00758603
-0.00805453
-0.00029169
5.0321e-05
-0.00114115
0.000122107
-0.00301862
0.000161059
-0.00444605
0.000149251
-0.00537155
9.5193e-05
-0.00593736
1.44356e-05
-0.00633055
-8.13056e-05
-0.00668206
-0.000187977
-0.00705417
-0.000305438
-0.00746857
-0.00792865
-0.000431323
4.4821e-05
-0.00118597
0.000101695
-0.00307549
0.000121624
-0.00446598
9.14612e-05
-0.00534139
2.1808e-05
-0.00586771
-7.1992e-05
-0.00623675
-0.000180051
-0.00657401
-0.000298959
-0.00693526
-0.000428855
-0.00733867
-0.00778953
-0.000567969
3.88747e-05
-0.00122485
8.07437e-05
-0.00311736
8.21929e-05
-0.00446742
3.46698e-05
-0.00529387
-4.98194e-05
-0.00578322
-0.00015635
-0.00613022
-0.000276293
-0.00645406
-0.000407089
-0.00680447
-0.000549265
-0.00719649
-0.00763747
-0.000701332
3.25675e-05
-0.00125741
5.95309e-05
-0.00314432
4.31053e-05
-0.004451
-2.09786e-05
-0.00522978
-0.000119579
-0.00568462
-0.000238397
-0.0060114
-0.000369883
-0.00632258
-0.000512282
-0.00666207
-0.000666531
-0.00704225
-0.00747294
-0.000831055
2.59914e-05
-0.0012834
3.82439e-05
-0.00315658
5.7807e-06
-0.00441854
-7.53421e-05
-0.00514866
-0.000187419
-0.00557254
-0.000318024
-0.00588079
-0.000460738
-0.00617986
-0.000614479
-0.00650833
-0.000780509
-0.00687622
-0.00729669
-0.000956767
1.93319e-05
-0.00130274
1.71016e-05
-0.00315435
-3.36168e-05
-0.00436782
-0.000128434
-0.00505384
-0.000253167
-0.00544781
-0.000395144
-0.00573882
-0.000548788
-0.00602622
-0.000713612
-0.0063435
-0.000891089
-0.00669874
-0.00710922
-0.00107856
1.25053e-05
-0.00131524
-2.50281e-06
-0.00313934
-7.08559e-05
-0.00429946
-0.000180006
-0.00494469
-0.000316758
-0.00531106
-0.000469694
-0.00558588
-0.000634
-0.00586191
-0.000809653
-0.00616785
-0.000998318
-0.00651007
-0.00691032
-0.00119721
5.09287e-06
-0.00132033
-2.58322e-05
-0.00310841
-0.000107252
-0.00421804
-0.000229805
-0.00482214
-0.000378104
-0.00516276
-0.000541638
-0.00542235
-0.000716427
-0.00568712
-0.000902761
-0.00598152
-0.00110215
-0.00631069
-0.00670014
-0.00131233
-2.43276e-06
-0.0013179
-4.6992e-05
-0.00306385
-0.000142547
-0.00412249
-0.00027774
-0.00468695
-0.000437085
-0.00500341
-0.000610909
-0.00524852
-0.000796138
-0.00550189
-0.000993342
-0.00578431
-0.00120228
-0.00610175
-0.00648048
-0.00142194
-9.36936e-06
-0.00130853
-6.73316e-05
-0.00300589
-0.000176573
-0.00401325
-0.000323755
-0.00453976
-0.000493612
-0.00483356
-0.000677373
-0.00506476
-0.000872875
-0.00530639
-0.00108122
-0.00557596
-0.00130302
-0.00587996
-0.00626242
-0.00152108
-1.64072e-05
-0.00129212
-8.69874e-05
-0.00293531
-0.000209242
-0.00389099
-0.000367777
-0.00438123
-0.000547618
-0.00465372
-0.000740888
-0.00487149
-0.000946039
-0.00510124
-0.00116332
-0.00535869
-0.00139016
-0.00565312
-0.00599121
-0.00166136
-2.33256e-05
-0.0012688
-0.000105948
-0.00285269
-0.000240494
-0.00375645
-0.000409751
-0.00421197
-0.000599073
-0.00446439
-0.000801385
-0.00466918
-0.00101529
-0.00488734
-0.00124045
-0.00513353
-0.00147879
-0.00541478
-0.00572278
-0.00174722
-3.00604e-05
-0.00123874
-0.000124162
-0.00275859
-0.00027028
-0.00361033
-0.000449635
-0.00403262
-0.000647941
-0.00426609
-0.000858866
-0.00445826
-0.00108134
-0.00466486
-0.00131585
-0.00489902
-0.00156573
-0.00516489
-0.00545214
-0.00183637
-3.6572e-05
-0.00120217
-0.000141573
-0.00265359
-0.000298557
-0.00345335
-0.000487392
-0.00384378
-0.000694175
-0.0040593
-0.000913237
-0.0042392
-0.00114385
-0.00443425
-0.00138697
-0.0046559
-0.00164557
-0.00490629
-0.00517617
-0.00192155
-4.28287e-05
-0.00115934
-0.000158132
-0.00253828
-0.000325289
-0.00328619
-0.000522997
-0.00364607
-0.000737759
-0.00384454
-0.000964526
-0.00401243
-0.00120293
-0.00419585
-0.00145422
-0.00440461
-0.00172076
-0.00463975
-0.00489365
-0.00200328
-4.88026e-05
-0.00111054
-0.000173795
-0.00241329
-0.000350443
-0.00310954
-0.000556429
-0.00344009
-0.000778672
-0.0036223
-0.0010127
-0.0037784
-0.00125847
-0.00395008
-0.00151735
-0.00414573
-0.0017913
-0.00436579
-0.00460408
-0.00208087
-5.44692e-05
-0.00105607
-0.000188529
-0.00227923
-0.000373995
-0.00292408
-0.000587672
-0.00322641
-0.000816903
-0.00339307
-0.00105775
-0.00353755
-0.00131044
-0.00369739
-0.0015764
-0.00387977
-0.0018574
-0.0040848
-0.00430744
-0.00215404
-5.9807e-05
-0.000996259
-0.000202303
-0.00213673
-0.000395923
-0.00273046
-0.000616717
-0.00300562
-0.000852442
-0.00315734
-0.00109965
-0.00329034
-0.0013588
-0.00343824
-0.00163137
-0.0036072
-0.00191904
-0.00379713
-0.00400393
-0.00222256
-6.4797e-05
-0.000931462
-0.000215093
-0.00198644
-0.000416212
-0.00252934
-0.000643554
-0.00277828
-0.000885279
-0.00291562
-0.00113839
-0.00303723
-0.00140353
-0.00317309
-0.00168225
-0.00332849
-0.00197618
-0.00350319
-0.00369388
-0.00228623
-6.94232e-05
-0.000862039
-0.000226879
-0.00182898
-0.000434851
-0.00232136
-0.000668178
-0.00254495
-0.00091541
-0.00266839
-0.00117395
-0.00277869
-0.00144461
-0.00290243
-0.00172899
-0.00304411
-0.00202875
-0.00320343
-0.00337773
-0.0023449
-7.36717e-05
-0.000788367
-0.000237645
-0.00166501
-0.000451832
-0.00210718
-0.000690589
-0.00230619
-0.000942831
-0.00241614
-0.00120631
-0.00251521
-0.00148201
-0.00262673
-0.00177157
-0.00275455
-0.00207667
-0.00289833
-0.00305595
-0.00239846
-7.75307e-05
-0.000710837
-0.000247379
-0.00149516
-0.000467147
-0.00188741
-0.000710784
-0.00206255
-0.000967541
-0.00215939
-0.00123548
-0.00224727
-0.00151572
-0.00234649
-0.00180995
-0.00246032
-0.0021199
-0.00258838
-0.00272906
-0.00244678
-8.09904e-05
-0.000629846
-0.000256071
-0.00132008
-0.000480795
-0.00166268
-0.000728768
-0.00181458
-0.000989542
-0.00189861
-0.00126145
-0.00197536
-0.00154573
-0.00206222
-0.00184411
-0.00216193
-0.00215836
-0.00227414
-0.00239762
-0.0024898
-8.40425e-05
-0.000545804
-0.000263712
-0.00114041
-0.000492773
-0.00143362
-0.000744543
-0.00156281
-0.00100884
-0.00163432
-0.00128423
-0.00169997
-0.00157203
-0.00177442
-0.00187404
-0.00185993
-0.00219203
-0.00195615
-0.00206221
-0.00252744
-8.66797e-05
-0.000459124
-0.000270295
-0.000956796
-0.000503081
-0.00120084
-0.000758113
-0.00130778
-0.00102544
-0.00136699
-0.00130382
-0.00142159
-0.00159464
-0.0014836
-0.00189973
-0.00155484
-0.00222089
-0.00163498
-0.00172344
-0.00255966
-8.88958e-05
-0.000370228
-0.000275815
-0.000769877
-0.000511716
-0.000964937
-0.000769482
-0.00105001
-0.00103936
-0.00109711
-0.00132025
-0.00114069
-0.00161359
-0.00119027
-0.00192122
-0.00124721
-0.00224497
-0.00131124
-0.00138195
-0.00258645
-9.06852e-05
-0.000279543
-0.000280265
-0.000580297
-0.000518674
-0.000726527
-0.000778651
-0.000790036
-0.0010506
-0.000825163
-0.00133353
-0.000857762
-0.0016289
-0.00089489
-0.00193856
-0.00093755
-0.00226432
-0.000985483
-0.0010384
-0.00260787
-9.20426e-05
-0.0001875
-0.000283637
-0.000388703
-0.00052395
-0.000486214
-0.000785613
-0.000528373
-0.00105915
-0.000551625
-0.00134367
-0.000573246
-0.00164063
-0.000597928
-0.00195186
-0.000626325
-0.0022791
-0.000658237
-0.000693428
-0.00262408
-9.29631e-05
-9.45373e-05
-0.000285923
-0.000195743
-0.000527533
-0.000244604
-0.000790358
-0.000265548
-0.00106501
-0.000276973
-0.00135066
-0.000287599
-0.00164878
-0.000299801
-0.00196119
-0.000313921
-0.00228954
-0.000329884
-0.000347486
-0.00263548
-9.34423e-05
-1.09508e-06
-0.000287116
-2.06975e-06
-0.000529411
-2.30869e-06
-0.000792862
-2.09663e-06
-0.00106814
-1.69927e-06
-0.00135444
-1.29015e-06
-0.0016533
-9.44189e-07
-0.00196653
-6.90442e-07
-0.00229587
-5.47142e-07
-5.46974e-07
-0.00264281
-9.34762e-05
9.23812e-05
-0.000287206
0.00019166
-0.000529568
0.000240053
-0.000793101
0.000261436
-0.00106848
0.000273681
-0.00135494
0.000285165
-0.001654
0.000298125
-0.00196756
0.000312868
-0.00229743
0.000329319
0.000347418
-0.00264539
-9.30625e-05
0.000185444
-0.000286187
0.000384785
-0.000527991
0.000481857
-0.000791048
0.000524492
-0.001066
0.000548628
-0.00135203
0.000571202
-0.00165068
0.000596773
-0.00196379
0.000625981
-0.00229313
0.000658656
0.000694603
-0.00264032
-9.22001e-05
0.000277644
-0.000284055
0.000576639
-0.000524672
0.000722475
-0.000786689
0.000786509
-0.00106066
0.000822599
-0.00134571
0.000856253
-0.00164332
0.000894386
-0.00195531
0.000937968
-0.00228339
0.000986737
0.00104036
-0.00262915
-9.089e-05
0.000368534
-0.000280809
0.000766559
-0.000519609
0.000961274
-0.000780023
0.00104692
-0.00105248
0.00109505
-0.00133599
0.00113977
-0.001632
0.00119039
-0.00194229
0.00124826
-0.00226857
0.00131302
0.00138423
-0.00261244
-8.91351e-05
0.000457669
-0.000276453
0.000953876
-0.000512803
0.00119762
-0.000771054
0.00130518
-0.00104146
0.00136546
-0.00132291
0.00142121
-0.00161677
0.00148426
-0.00192483
0.00155631
-0.00224881
0.001637
0.00172569
-0.00259027
-8.69399e-05
0.000544609
-0.000270992
0.00113793
-0.00050426
0.00143089
-0.000759791
0.00156071
-0.00102763
0.0016333
-0.00130649
0.00170008
-0.0015977
0.00177547
-0.00190302
0.00186163
-0.00222419
0.00195817
0.00206424
-0.00256274
-8.43108e-05
0.00062892
-0.000264434
0.00131805
-0.000493989
0.00166045
-0.000746246
0.00181296
-0.001011
0.00189805
-0.00128678
0.00197586
-0.00157484
0.00206353
-0.00187691
0.0021637
-0.00219477
0.00227603
0.00239934
-0.00252987
-8.12555e-05
0.000710175
-0.00025679
0.00149359
-0.000482
0.00188566
-0.000730432
0.0020614
-0.000991606
0.00215923
-0.00126381
0.00224806
-0.00154822
0.00234794
-0.00184656
0.00246204
-0.00216059
0.00259005
0.00273045
-0.0024917
-7.77834e-05
0.000787959
-0.000248071
0.00166387
-0.000468305
0.00210589
-0.000712362
0.00230545
-0.000969453
0.00241632
-0.0012376
0.00251621
-0.00151789
0.00262822
-0.001812
0.00275615
-0.00212169
0.00289975
0.00305704
-0.00244827
-7.39049e-05
0.000861863
-0.000238293
0.00182826
-0.000452915
0.00232051
-0.000692047
0.00254458
-0.000944561
0.00266883
-0.00120818
0.00277983
-0.00148386
0.0029039
-0.00177325
0.00304554
-0.00207811
0.0032046
0.00337855
-0.00239963
-6.96322e-05
0.000931496
-0.00022747
0.0019861
-0.000435841
0.00252888
-0.000669497
0.00277824
-0.000916944
0.00291628
-0.00117556
0.00303844
-0.00144616
0.0031745
-0.00173036
0.00332974
-0.00202989
0.00350413
0.0036945
-0.00234583
-6.49791e-05
0.000996475
-0.000215619
0.00213674
-0.000417097
0.00273036
-0.000644723
0.00300587
-0.000886615
0.00315817
-0.00113976
0.00329159
-0.00140481
0.00343955
-0.00168335
0.00360828
-0.00197709
0.00379787
0.00400439
-0.00228698
-5.99609e-05
0.00105644
-0.000202761
0.00227954
-0.000396698
0.0029243
-0.000617735
0.0032269
-0.000853586
0.00339402
-0.0011008
0.0035388
-0.00135984
0.0036986
-0.00163225
0.00388069
-0.00191976
0.00408539
0.00430782
-0.00222319
-5.45954e-05
0.00111103
-0.000188918
0.00241386
-0.000374661
0.00311004
-0.000588543
0.00344078
-0.000817867
0.00362335
-0.00105869
0.00377963
-0.00131127
0.00395118
-0.00157709
0.0041465
-0.00185797
0.00436626
0.00460444
-0.00215459
-4.89022e-05
0.00115993
-0.000174118
0.00253908
-0.000351004
0.00328693
-0.000557161
0.00364694
-0.00077947
0.00384566
-0.00101347
0.00401362
-0.00125913
0.00419684
-0.00151787
0.00440525
-0.00179174
0.00464013
0.00489406
-0.00208135
-4.29037e-05
0.00120284
-0.000158391
0.00265456
-0.000325751
0.00345429
-0.000523601
0.00384479
-0.000738408
0.00406046
-0.000965131
0.00424035
-0.00120344
0.00443514
-0.00145461
0.00465642
-0.00172108
0.00490659
0.00517669
-0.00200372
-3.66249e-05
0.00123946
-0.000141775
0.00275971
-0.000298929
0.00361144
-0.00048788
0.00403374
-0.000694693
0.00426728
-0.000913705
0.00445936
-0.00114423
0.00466566
-0.00138726
0.00489945
-0.00164579
0.00516512
0.00545283
-0.00192193
-3.00937e-05
0.00126956
-0.000124312
0.00285393
-0.000270569
0.0037577
-0.000450019
0.00421319
-0.000648343
0.0044656
-0.000859217
0.00467023
-0.00108161
0.00488805
-0.00131603
0.00513387
-0.00156582
0.00541492
0.00572363
-0.00183662
-2.33421e-05
0.0012929
-0.000106052
0.00293664
-0.000240711
0.00389236
-0.000410045
0.00438252
-0.000599377
0.00465493
-0.00080164
0.00487249
-0.00101547
0.00510188
-0.00124059
0.00535899
-0.00147893
0.00565326
0.00599202
-0.00174732
-1.64095e-05
0.00130931
-8.70519e-05
0.00300728
-0.000209395
0.0040147
-0.000367992
0.00454112
-0.000547839
0.00483478
-0.000741063
0.00506572
-0.000946134
0.00530695
-0.00116333
0.00557619
-0.00139011
0.00588004
0.00626249
-0.00166057
-9.35996e-06
0.00131867
-6.73625e-05
0.00306529
-0.000176671
0.00412401
-0.000323904
0.00468835
-0.000493764
0.00500464
-0.000677487
0.00524944
-0.000872928
0.00550239
-0.00108121
0.00578447
-0.00130303
0.00610186
0.00648097
-0.00152152
-2.41497e-06
0.00132108
-4.69947e-05
0.00310987
-0.000142599
0.00421962
-0.000277832
0.00482359
-0.000437183
0.00516399
-0.000610983
0.00542324
-0.000796184
0.00568759
-0.000993396
0.00598168
-0.00120245
0.00631092
0.00670073
-0.00142221
5.12119e-06
0.00131596
-2.58107e-05
0.0031408
-0.000107264
0.00430107
-0.000229852
0.00494618
-0.000378159
0.0053123
-0.000541682
0.00558677
-0.000716473
0.00586238
-0.000902854
0.00616806
-0.00110235
0.00651042
0.00691094
-0.00131256
1.25388e-05
0.00130342
-2.44279e-06
0.00315578
-7.08338e-05
0.00436946
-0.000180014
0.00505536
-0.000316778
0.00544906
-0.000469714
0.0057397
-0.000634039
0.00602671
-0.000809752
0.00634378
-0.000998505
0.00669917
0.00710985
-0.00119742
1.9367e-05
0.00128406
1.71549e-05
0.00315799
-3.35686e-05
0.00442018
-0.00012841
0.0051502
-0.000253156
0.00557381
-0.000395144
0.00588169
-0.000548816
0.00618038
-0.0007137
0.00650866
-0.000891244
0.00687671
0.00729732
-0.00107871
2.60288e-05
0.00125803
3.83123e-05
0.00314571
5.84368e-06
0.00445265
-7.52913e-05
0.00523133
-0.000187382
0.0056859
-0.000318004
0.00601231
-0.000460752
0.00632313
-0.000614551
0.00666246
-0.000780626
0.00704279
0.00747355
-0.000956847
3.26075e-05
0.00122542
5.96111e-05
0.0031187
4.31946e-05
0.00446907
-2.09021e-05
0.00529543
-0.00011952
0.00578452
-0.000238358
0.00613115
-0.000369882
0.00645465
-0.000512333
0.00680491
-0.00066661
0.00719707
0.00763801
-0.000831076
3.89164e-05
0.0011865
8.08331e-05
0.00307679
8.22995e-05
0.0044676
3.4767e-05
0.00534296
-4.97398e-05
0.00586902
-0.000156294
0.00623771
-0.000276275
0.00657463
-0.000407116
0.00693575
-0.000549306
0.00733925
0.00779002
-0.00070131
4.48636e-05
0.00114164
0.000101792
0.00301986
0.000121745
0.00444765
9.15783e-05
0.00537313
2.19069e-05
0.00593869
-7.19197e-05
0.00633153
-0.000180016
0.00668273
-0.000298962
0.0070547
-0.000428862
0.00746916
0.00792907
-0.000567917
5.03639e-05
0.00109127
0.00012221
0.00294801
0.000161194
0.00440867
0.000149386
0.00538494
9.53104e-05
0.00599277
1.45256e-05
0.00641232
-8.12527e-05
0.00677851
-0.000187957
0.0071614
-0.000305416
0.00758661
0.0080549
-0.000431249
5.53268e-05
0.00103595
0.000141811
0.00286153
0.000200334
0.00435014
0.000207799
0.00537747
0.000170253
0.00603032
0.00010354
0.00647903
1.97653e-05
0.00686228
-7.43837e-05
0.00725555
-0.000178965
0.0076912
0.00816754
-0.000291601
5.96677e-05
0.00097628
0.000160324
0.00276087
0.000238788
0.00427168
0.000266473
0.00534979
0.000246424
0.00605036
0.000194335
0.00653112
0.000123853
0.00693276
4.17533e-05
0.00733765
-4.87096e-05
0.00778166
0.00826864
-0.000149811
6.3311e-05
0.000912969
0.000177466
0.00264672
0.000276123
0.00417302
0.000324989
0.00530092
0.000323512
0.00605184
0.000286843
0.00656779
0.000229794
0.00698981
0.000160864
0.00740658
8.241e-05
0.00786011
0.00836063
-9.57551e-06
6.6192e-05
0.000846777
0.000192948
0.00251996
0.000311864
0.00405411
0.000382852
0.00522993
0.000401122
0.00603357
0.00038079
0.00658812
0.000337711
0.00703289
0.000281809
0.00746248
0.000217017
0.0079249
0.00843279
0.000144857
6.82582e-05
0.000778519
0.000206456
0.00238176
0.000345483
0.00391508
0.000439481
0.00513593
0.000478768
0.00599429
0.000475842
0.00659105
0.000447416
0.00706132
0.000405038
0.00750486
0.000354222
0.00797572
0.00849038
0.000296631
6.94757e-05
0.000709043
0.000217703
0.00223354
0.000376413
0.00375637
0.000494205
0.00501814
0.000555865
0.00593263
0.000571576
0.00657533
0.000558604
0.00707429
0.000530157
0.00753331
0.000493063
0.00801281
0.00853378
0.000449659
6.98303e-05
0.000639213
0.00022643
0.00207694
0.000404048
0.00357875
0.000546258
0.00487593
0.000631704
0.00584718
0.000667458
0.00653958
0.000670876
0.00707087
0.000656774
0.00754741
0.000633446
0.00803614
0.00856311
0.000604121
6.93278e-05
0.000569885
0.000232412
0.00191385
0.000427759
0.0033834
0.000594773
0.00470892
0.000705441
0.00573651
0.000762827
0.00648219
0.000783774
0.00704992
0.000784577
0.00754661
0.000775221
0.0080455
0.00857843
0.000759901
6.79958e-05
0.00050189
0.000235479
0.00174637
0.000446917
0.00317197
0.000638791
0.00451704
0.000776085
0.00559922
0.000856882
0.0064014
0.000896753
0.00701005
0.000913233
0.00753013
0.000918163
0.00804057
0.00857972
0.000916866
6.5884e-05
0.000436006
0.000235533
0.00157672
0.000460923
0.00294658
0.000677277
0.00430069
0.000842484
0.00543401
0.000948644
0.00629524
0.00100913
0.00694956
0.00104232
0.00749694
0.00106199
0.0080209
0.00856687
0.00107484
6.30631e-05
0.000372942
0.000232565
0.00140722
0.000469251
0.00270989
0.000709143
0.0040608
0.000903323
0.00523983
0.00103693
0.00616163
0.00112005
0.00686645
0.00117128
0.00744571
0.00120635
0.00798582
0.00853964
0.00123359
5.9624e-05
0.000313318
0.000226666
0.00124018
0.000471497
0.00246506
0.000733292
0.003799
0.00095713
0.00501599
0.00112032
0.00599844
0.0012284
0.00675836
0.00129939
0.00737473
0.00135079
0.00793442
0.00849761
0.00139282
5.5673e-05
0.000257645
0.000218033