/*--------------------------------*- C++ -*----------------------------------*\
  =========                 |
  \\      /  F ield         | OpenFOAM: The Open Source CFD Toolbox
   \\    /   O peration     | Website:  https://openfoam.org
    \\  /    A nd           | Version:  7
     \\/     M anipulation  |
\*---------------------------------------------------------------------------*/
FoamFile
{
    version     2.0;
    format      ascii;
    class       volScalarField;
    location    "35";
    object      p;
}
// * * * * * * * * * * * * * * * * * * * * * * * * * * * * * * * * * * * * * //

dimensions      [0 2 -2 0 0 0 0];

internalField   nonuniform List<scalar> 
12772
(
-0.194802
-0.196743
-0.197656
-0.198397
-0.199035
-0.199597
-0.200104
-0.200563
-0.200973
-0.201342
-0.195003
-0.196919
-0.197819
-0.198546
-0.199171
-0.199719
-0.200213
-0.200659
-0.201053
-0.201397
-0.195393
-0.197262
-0.198136
-0.198837
-0.199436
-0.199957
-0.200423
-0.20084
-0.201202
-0.201488
-0.195965
-0.197767
-0.198602
-0.199265
-0.199825
-0.200306
-0.200728
-0.2011
-0.20141
-0.201599
-0.196709
-0.198427
-0.199211
-0.199823
-0.200329
-0.200755
-0.201117
-0.201425
-0.201666
-0.20171
-0.197616
-0.199233
-0.199954
-0.200501
-0.20094
-0.201295
-0.201578
-0.201802
-0.201958
-0.201794
-0.198673
-0.200175
-0.200822
-0.20129
-0.201646
-0.201913
-0.202099
-0.202215
-0.202275
-0.201813
-0.199868
-0.201243
-0.201803
-0.202179
-0.202436
-0.202599
-0.202665
-0.202645
-0.202605
-0.201718
-0.20119
-0.202428
-0.20289
-0.203158
-0.203298
-0.203339
-0.203266
-0.203075
-0.20295
-0.201436
-0.202627
-0.203722
-0.204073
-0.204217
-0.204224
-0.204124
-0.203891
-0.203491
-0.203341
-0.200871
-0.204174
-0.205118
-0.205346
-0.205349
-0.205204
-0.204945
-0.204534
-0.203876
-0.203807
-0.200105
-0.205825
-0.206613
-0.206702
-0.206547
-0.206231
-0.205796
-0.205189
-0.204217
-0.20398
-0.19941
-0.207581
-0.208206
-0.208142
-0.207808
-0.2073
-0.20667
-0.205859
-0.204672
-0.204068
-0.198416
-0.209447
-0.209901
-0.209664
-0.20913
-0.20841
-0.207568
-0.206526
-0.205117
-0.204211
-0.197128
-0.211432
-0.211704
-0.211275
-0.210515
-0.20956
-0.208487
-0.207204
-0.205561
-0.204366
-0.195663
-0.213554
-0.213631
-0.212983
-0.211969
-0.210752
-0.209429
-0.207891
-0.206043
-0.204458
-0.194188
-0.215835
-0.215697
-0.214802
-0.213503
-0.211994
-0.210396
-0.208581
-0.206595
-0.204371
-0.192883
-0.218307
-0.217927
-0.216751
-0.215134
-0.213299
-0.211398
-0.209276
-0.207254
-0.203912
-0.191855
-0.221006
-0.220345
-0.218863
-0.216885
-0.214688
-0.212454
-0.20999
-0.208052
-0.202986
-0.191858
-0.22398
-0.22299
-0.221162
-0.218786
-0.216193
-0.213595
-0.210759
-0.208942
-0.201972
-0.196207
-0.22728
-0.225902
-0.223687
-0.220877
-0.217852
-0.214859
-0.21162
-0.209724
-0.201519
-0.20742
-0.230953
-0.229131
-0.226482
-0.223202
-0.219713
-0.216291
-0.212624
-0.210273
-0.2018
-0.206559
-0.23506
-0.232719
-0.229594
-0.225811
-0.221831
-0.21794
-0.213814
-0.21069
-0.202343
-0.203824
-0.239659
-0.236715
-0.23307
-0.228755
-0.224258
-0.21985
-0.215198
-0.211134
-0.202777
-0.20115
-0.244804
-0.241167
-0.236961
-0.232085
-0.227041
-0.222056
-0.216772
-0.211651
-0.202976
-0.198451
-0.250544
-0.246118
-0.241312
-0.235848
-0.230219
-0.224578
-0.218526
-0.212222
-0.202862
-0.195831
-0.25692
-0.251612
-0.24617
-0.240087
-0.233816
-0.227416
-0.220432
-0.212792
-0.202413
-0.193219
-0.263965
-0.257681
-0.251573
-0.244834
-0.237842
-0.23055
-0.22244
-0.213284
-0.201619
-0.190536
-0.271697
-0.264353
-0.25755
-0.250107
-0.242288
-0.233938
-0.224468
-0.213606
-0.200471
-0.187705
-0.280119
-0.271642
-0.264119
-0.255905
-0.247123
-0.237505
-0.226412
-0.21367
-0.198957
-0.184656
-0.289216
-0.279547
-0.271278
-0.262203
-0.252287
-0.241142
-0.228154
-0.213392
-0.197056
-0.18133
-0.298947
-0.288046
-0.278997
-0.268947
-0.257683
-0.244707
-0.229573
-0.212698
-0.19474
-0.177672
-0.309245
-0.297093
-0.28722
-0.276048
-0.263171
-0.248042
-0.23055
-0.211518
-0.191975
-0.173633
-0.320011
-0.306608
-0.29585
-0.283377
-0.268572
-0.250976
-0.230973
-0.209787
-0.18872
-0.169162
-0.331114
-0.316477
-0.304755
-0.29076
-0.273678
-0.253338
-0.230734
-0.207441
-0.184925
-0.164211
-0.342381
-0.326547
-0.313762
-0.29798
-0.278264
-0.254965
-0.229733
-0.204415
-0.180539
-0.158729
-0.353604
-0.336625
-0.322652
-0.304782
-0.282098
-0.2557
-0.227873
-0.200641
-0.175505
-0.15267
-0.36454
-0.346479
-0.331171
-0.310884
-0.284953
-0.255394
-0.225061
-0.196052
-0.169766
-0.145986
-0.37491
-0.355843
-0.339026
-0.315993
-0.286612
-0.253912
-0.221209
-0.19058
-0.163264
-0.138638
-0.384408
-0.364418
-0.345898
-0.319818
-0.286872
-0.251127
-0.21623
-0.184158
-0.155941
-0.130585
-0.392707
-0.371885
-0.351453
-0.322079
-0.285551
-0.246924
-0.210044
-0.176721
-0.147745
-0.121793
-0.399469
-0.377909
-0.355356
-0.322515
-0.282482
-0.241199
-0.202578
-0.168208
-0.138627
-0.112229
-0.404351
-0.382148
-0.357282
-0.320893
-0.277525
-0.23386
-0.193762
-0.158565
-0.128552
-0.101879
-0.407019
-0.384267
-0.356932
-0.317011
-0.270558
-0.224831
-0.183537
-0.14774
-0.117488
-0.0907326
-0.407156
-0.383945
-0.35404
-0.310701
-0.261487
-0.214047
-0.17185
-0.135687
-0.105395
-0.0787399
-0.404472
-0.380891
-0.348382
-0.301834
-0.25024
-0.201466
-0.15867
-0.122375
-0.092211
-0.0657279
-0.398711
-0.374849
-0.339781
-0.290317
-0.236774
-0.187061
-0.143981
-0.107799
-0.077889
-0.0514183
-0.389659
-0.365609
-0.328106
-0.276096
-0.221069
-0.170824
-0.127782
-0.0919776
-0.0624931
-0.0357987
-0.377152
-0.353016
-0.313274
-0.259152
-0.203131
-0.152761
-0.110078
-0.0749292
-0.0461174
-0.0198132
-0.361077
-0.336971
-0.295248
-0.239503
-0.182988
-0.132897
-0.0909089
-0.0567127
-0.0285933
-0.00337251
-0.341377
-0.317429
-0.27404
-0.217204
-0.160697
-0.11129
-0.0703751
-0.0373321
-0.010091
0.0137447
-0.318049
-0.294402
-0.249714
-0.192345
-0.136338
-0.0880426
-0.0484981
-0.0168272
0.00927827
0.0315635
-0.291144
-0.267964
-0.222407
-0.165032
-0.109999
-0.0632231
-0.0253458
0.0047182
0.0294428
0.050006
-0.260767
-0.238253
-0.192323
-0.13533
-0.0817951
-0.0369255
-0.00101353
0.0272147
0.0503339
0.0689652
-0.227085
-0.205478
-0.159568
-0.103352
-0.0518915
-0.0092809
0.0243858
0.0505674
0.0718792
0.0883572
-0.190325
-0.169925
-0.123852
-0.0695861
-0.0204656
0.0195659
0.0507271
0.0746758
0.0939954
0.108078
-0.1507
-0.131827
-0.0856606
-0.0340702
0.0122877
0.0494555
0.0778867
0.0994458
0.116531
0.127744
-0.108412
-0.0907933
-0.0461174
0.0029342
0.0461826
0.0802292
0.105763
0.124807
0.13921
0.146514
-0.0638488
-0.0477281
-0.00506894
0.0411532
0.0810121
0.111727
0.134265
0.15069
0.161769
0.163938
-0.0174823
-0.0028974
0.0373084
0.0803231
0.116549
0.143773
0.163246
0.1769
0.18425
0.182025
0.0304189
0.0432604
0.0807099
0.120174
0.152558
0.176164
0.192463
0.203051
0.206658
0.205525
0.079449
0.090348
0.124788
0.160423
0.188796
0.20868
0.221652
0.228971
0.229605
0.229151
0.12918
0.137975
0.169184
0.200776
0.225015
0.241098
0.250643
0.254722
0.252807
0.251492
0.179182
0.185746
0.21354
0.240936
0.26096
0.273192
0.279262
0.28017
0.275845
0.272917
0.22902
0.233258
0.257496
0.280602
0.296378
0.304746
0.307342
0.305147
0.298402
0.29344
0.278262
0.280112
0.300702
0.319477
0.331016
0.335547
0.334705
0.329475
0.320302
0.31311
0.326481
0.325913
0.342811
0.35727
0.364627
0.365385
0.361175
0.352985
0.341401
0.331895
0.373258
0.370273
0.383489
0.393698
0.396971
0.394056
0.386576
0.375522
0.361576
0.349739
0.418188
0.412821
0.422413
0.428487
0.427815
0.421364
0.41074
0.396939
0.380712
0.36657
0.460883
0.453198
0.459276
0.461377
0.45694
0.44712
0.433506
0.417098
0.398696
0.382311
0.500973
0.491068
0.493785
0.492122
0.484136
0.471147
0.454722
0.43587
0.415421
0.396885
0.538114
0.526114
0.525671
0.520493
0.509208
0.493276
0.474246
0.453133
0.430786
0.410219
0.571987
0.558047
0.554683
0.546278
0.531976
0.513357
0.491948
0.468777
0.444695
0.422244
0.602301
0.5866
0.580594
0.569285
0.552276
0.531248
0.507709
0.482698
0.457063
0.432899
0.628797
0.611539
0.603203
0.589344
0.569964
0.546828
0.521424
0.494807
0.467811
0.442129
0.651247
0.632656
0.622332
0.606303
0.584912
0.559987
0.533003
0.505025
0.476874
0.44989
0.669459
0.649778
0.637831
0.620038
0.597013
0.570636
0.542368
0.513285
0.484194
0.456141
0.683276
0.662762
0.649579
0.630446
0.60618
0.5787
0.549457
0.519535
0.489727
0.46085
0.692578
0.671501
0.657483
0.637446
0.612345
0.584122
0.554223
0.523736
0.493444
0.46401
0.697285
0.675919
0.661479
0.640985
0.615461
0.586862
0.556631
0.52586
0.495331
0.465633
0.697352
0.67598
0.661534
0.641033
0.615503
0.586897
0.55666
0.525884
0.495353
0.465667
0.692778
0.67168
0.657645
0.637588
0.612466
0.584223
0.554304
0.523799
0.493494
0.46405
0.683599
0.663052
0.64984
0.630672
0.606372
0.578856
0.549578
0.519623
0.489785
0.46088
0.669892
0.650166
0.638179
0.620338
0.597262
0.570833
0.542515
0.513385
0.484251
0.456158
0.651772
0.633127
0.622752
0.606661
0.585204
0.560213
0.533165
0.505127
0.476925
0.449896
0.629395
0.612076
0.60368
0.589745
0.570286
0.547071
0.521592
0.494908
0.467855
0.442125
0.602953
0.587186
0.581112
0.569716
0.552616
0.531499
0.507877
0.482794
0.4571
0.432887
0.572671
0.558663
0.555225
0.546725
0.532323
0.513609
0.492113
0.468868
0.444727
0.422227
0.538811
0.526745
0.526224
0.520946
0.509556
0.493525
0.474407
0.453221
0.430816
0.4102
0.501666
0.491698
0.494337
0.492571
0.484479
0.471389
0.454878
0.435955
0.415451
0.396866
0.461557
0.453814
0.459816
0.461815
0.457273
0.447356
0.433658
0.417182
0.398727
0.382293
0.418832
0.413412
0.422934
0.428909
0.428135
0.421591
0.410888
0.397023
0.380746
0.366554
0.373861
0.370831
0.383983
0.3941
0.397276
0.394274
0.386721
0.375608
0.361614
0.349725
0.327036
0.326431
0.343273
0.357649
0.364917
0.365594
0.361317
0.353073
0.341443
0.331882
0.278765
0.280587
0.301129
0.31983
0.331289
0.335747
0.334844
0.329566
0.320349
0.313097
0.229468
0.233686
0.257887
0.280929
0.296635
0.304938
0.307479
0.305241
0.298457
0.293427
0.179574
0.186125
0.213892
0.241236
0.2612
0.273376
0.279398
0.280269
0.275911
0.272908
0.129518
0.138307
0.169499
0.201049
0.225238
0.241274
0.250777
0.254824
0.25289
0.251498
0.0797333
0.0906331
0.125065
0.160669
0.189003
0.208849
0.221784
0.229077
0.229712
0.229205
0.0306529
0.0435005
0.0809508
0.120395
0.152749
0.176326
0.192595
0.203158
0.206786
0.205694
-0.0172955
-0.00270013
0.0375146
0.0805188
0.116725
0.143928
0.16338
0.177013
0.184395
0.182335
-0.0637054
-0.0475709
-0.00489587
0.0413246
0.0811722
0.111874
0.134399
0.150809
0.161909
0.164211
-0.108309
-0.0906732
-0.0459757
0.0030821
0.0463268
0.0803664
0.105893
0.124926
0.139333
0.146704
-0.150633
-0.131741
-0.0855488
-0.0339452
0.0124157
0.0495814
0.0780086
0.0995586
0.116639
0.127883
-0.190289
-0.16987
-0.123769
-0.0694833
-0.0203539
0.0196793
0.0508388
0.07478
0.0940921
0.108192
-0.227078
-0.20545
-0.159509
-0.103271
-0.051796
-0.00918021
0.0244868
0.0506628
0.0719674
0.0884558
-0.260786
-0.238251
-0.192289
-0.135268
-0.0817155
-0.0368376
-0.000923278
0.0273015
0.0504143
0.0690513
-0.291186
-0.267985
-0.222396
-0.164989
-0.109935
-0.063148
-0.0252661
0.00479635
0.029516
0.0500825
-0.31811
-0.294443
-0.249723
-0.192321
-0.13629
-0.08798
-0.0484289
-0.0167574
0.0093448
0.031633
-0.341456
-0.317489
-0.274067
-0.217197
-0.160664
-0.11124
-0.0703161
-0.0372703
-0.0100303
0.0138091
-0.361171
-0.337047
-0.295292
-0.239512
-0.182969
-0.132859
-0.0908598
-0.0566583
-0.0285378
-0.00331232
-0.377259
-0.353106
-0.313334
-0.259177
-0.203125
-0.152735
-0.110039
-0.0748818
-0.0460664
-0.0197568
-0.389778
-0.365712
-0.328181
-0.276135
-0.221077
-0.170809
-0.127752
-0.0919371
-0.0624459
-0.035746
-0.39884
-0.374963
-0.339868
-0.29037
-0.236795
-0.187057
-0.14396
-0.107765
-0.0778455
-0.0513665
-0.40461
-0.381016
-0.348481
-0.3019
-0.250273
-0.201472
-0.158657
-0.122347
-0.0921714
-0.0656774
-0.407302
-0.384079
-0.35415
-0.310779
-0.261532
-0.214065
-0.171846
-0.135666
-0.10536
-0.0786911
-0.407172
-0.384409
-0.357053
-0.317101
-0.270615
-0.224859
-0.183541
-0.147725
-0.117456
-0.0906858
-0.40451
-0.382298
-0.357413
-0.320994
-0.277593
-0.233899
-0.193775
-0.158557
-0.128525
-0.101834
-0.399634
-0.378066
-0.355496
-0.322627
-0.282562
-0.241248
-0.2026
-0.168206
-0.138604
-0.112186
-0.392877
-0.372049
-0.351602
-0.322201
-0.285642
-0.246984
-0.210075
-0.176726
-0.147726
-0.121752
-0.384583
-0.364587
-0.346054
-0.319951
-0.286975
-0.251198
-0.21627
-0.18417
-0.155927
-0.130546
-0.37509
-0.356018
-0.33919
-0.316135
-0.286725
-0.253994
-0.221259
-0.1906
-0.163255
-0.1386
-0.364725
-0.34666
-0.331342
-0.311035
-0.285077
-0.255487
-0.225122
-0.19608
-0.169763
-0.145951
-0.353793
-0.336811
-0.322829
-0.304942
-0.282233
-0.255804
-0.227944
-0.200678
-0.175508
-0.152637
-0.342574
-0.326738
-0.313945
-0.298149
-0.27841
-0.255082
-0.229816
-0.204461
-0.180549
-0.1587
-0.331311
-0.316672
-0.304944
-0.290937
-0.273835
-0.253467
-0.230829
-0.207499
-0.184942
-0.164185
-0.320213
-0.306807
-0.296044
-0.283561
-0.268739
-0.251117
-0.231082
-0.209857
-0.188746
-0.169142
-0.30945
-0.297296
-0.287419
-0.276239
-0.263348
-0.248197
-0.230674
-0.211601
-0.192012
-0.173619
-0.299156
-0.288253
-0.279201
-0.269145
-0.25787
-0.244875
-0.229712
-0.212796
-0.194789
-0.177665
-0.289429
-0.279757
-0.271486
-0.262408
-0.252485
-0.241323
-0.228309
-0.213507
-0.197119
-0.181332
-0.280336
-0.271856
-0.264332
-0.256116
-0.24733
-0.237701
-0.226584
-0.213803
-0.199036
-0.18467
-0.271918
-0.26457
-0.257767
-0.250324
-0.242504
-0.234148
-0.224658
-0.213759
-0.200569
-0.187733
-0.26419
-0.257901
-0.251793
-0.245057
-0.238067
-0.230774
-0.222648
-0.213458
-0.201736
-0.19058
-0.257148
-0.251835
-0.246394
-0.240316
-0.23405
-0.227653
-0.22066
-0.212989
-0.202553
-0.193281
-0.250774
-0.246344
-0.24154
-0.236082
-0.230463
-0.224829
-0.218773
-0.212442
-0.203025
-0.195913
-0.245036
-0.241393
-0.23719
-0.232324
-0.227294
-0.222321
-0.217038
-0.211894
-0.203163
-0.198554
-0.239891
-0.236941
-0.233302
-0.228998
-0.224518
-0.220127
-0.215481
-0.211399
-0.202988
-0.201272
-0.235289
-0.232943
-0.229825
-0.226057
-0.222098
-0.218228
-0.214113
-0.210974
-0.202575
-0.203963
-0.231175
-0.22935
-0.226711
-0.223449
-0.219985
-0.216588
-0.212936
-0.210574
-0.20205
-0.206707
-0.227493
-0.226114
-0.22391
-0.221121
-0.218124
-0.21516
-0.21194
-0.210037
-0.201783
-0.207569
-0.224179
-0.22319
-0.221376
-0.219024
-0.216461
-0.213895
-0.211081
-0.209262
-0.202245
-0.196362
-0.221187
-0.220531
-0.219065
-0.217113
-0.214949
-0.212749
-0.210309
-0.208372
-0.203263
-0.192013
-0.218467
-0.218096
-0.216937
-0.215348
-0.213546
-0.21168
-0.209584
-0.207565
-0.204186
-0.192003
-0.21597
-0.215845
-0.214969
-0.213699
-0.212224
-0.210661
-0.208871
-0.206888
-0.204632
-0.193018
-0.213662
-0.213756
-0.21313
-0.212144
-0.21096
-0.209671
-0.208156
-0.206311
-0.204698
-0.194305
-0.211511
-0.211806
-0.211398
-0.210667
-0.209744
-0.208702
-0.207441
-0.205799
-0.20458
-0.195757
-0.209497
-0.209978
-0.209764
-0.209257
-0.208567
-0.207753
-0.206732
-0.205319
-0.204391
-0.197196
-0.207604
-0.208259
-0.208217
-0.207909
-0.20743
-0.206825
-0.206032
-0.204838
-0.204217
-0.198452
-0.205822
-0.206643
-0.206755
-0.206624
-0.206333
-0.20592
-0.205326
-0.204354
-0.204077
-0.199427
-0.204148
-0.205128
-0.205377
-0.205403
-0.20528
-0.20504
-0.204638
-0.203982
-0.203801
-0.200152
-0.202582
-0.203714
-0.204086
-0.204251
-0.204277
-0.204192
-0.203966
-0.203563
-0.203342
-0.200879
-0.20113
-0.202406
-0.202888
-0.203174
-0.203331
-0.203383
-0.203314
-0.203116
-0.202942
-0.201399
-0.199799
-0.20121
-0.201789
-0.202181
-0.202451
-0.202624
-0.202692
-0.202661
-0.202581
-0.201654
-0.1986
-0.200136
-0.200799
-0.201282
-0.201649
-0.201923
-0.202108
-0.202212
-0.202238
-0.201733
-0.197544
-0.199191
-0.199927
-0.200486
-0.200934
-0.201294
-0.201576
-0.201788
-0.201915
-0.201709
-0.196643
-0.198387
-0.199183
-0.199805
-0.200319
-0.200748
-0.201107
-0.201405
-0.201621
-0.201628
-0.195908
-0.197732
-0.198577
-0.199248
-0.199813
-0.200296
-0.200715
-0.201078
-0.201369
-0.201526
-0.19535
-0.197235
-0.198115
-0.198822
-0.199425
-0.199948
-0.200411
-0.200822
-0.201169
-0.201431
-0.194976
-0.196902
-0.197806
-0.198536
-0.199163
-0.199712
-0.200205
-0.200646
-0.201032
-0.201362
-0.194793
-0.196737
-0.197652
-0.198394
-0.199033
-0.199594
-0.200101
-0.200559
-0.200966
-0.20133
-0.201782
-0.202088
-0.202397
-0.202703
-0.203002
-0.203292
-0.203567
-0.203819
-0.204039
-0.204216
-0.204339
-0.204396
-0.204373
-0.204256
-0.20403
-0.203675
-0.203173
-0.202499
-0.201624
-0.200517
-0.199135
-0.197438
-0.19538
-0.192899
-0.189927
-0.186389
-0.18219
-0.177242
-0.171413
-0.164641
-0.156726
-0.147731
-0.137337
-0.125888
-0.112924
-0.0990872
-0.0842
-0.0679816
-0.0536183
-0.0336481
-0.0252319
0.00282249
-0.201884
-0.20218
-0.20249
-0.202804
-0.203113
-0.203417
-0.203709
-0.203981
-0.204225
-0.20443
-0.204584
-0.204674
-0.204687
-0.204606
-0.204414
-0.204092
-0.203615
-0.202957
-0.202085
-0.200964
-0.199544
-0.197784
-0.195635
-0.193036
-0.189919
-0.186212
-0.181828
-0.176691
-0.170682
-0.163757
-0.155729
-0.14669
-0.136308
-0.124957
-0.112187
-0.098608
-0.0840044
-0.068116
-0.0540277
-0.0342728
-0.0259694
0.00240921
-0.20206
-0.202333
-0.202638
-0.202955
-0.203272
-0.203587
-0.203894
-0.204186
-0.204453
-0.204685
-0.204869
-0.204992
-0.205039
-0.204994
-0.204838
-0.204547
-0.204097
-0.203458
-0.202593
-0.201455
-0.200002
-0.198182
-0.195948
-0.193235
-0.189978
-0.186109
-0.181547
-0.176229
-0.170045
-0.162975
-0.154839
-0.145756
-0.135397
-0.124123
-0.111546
-0.0982265
-0.0838938
-0.06833
-0.0544953
-0.0349514
-0.0267658
0.00196703
-0.202302
-0.202536
-0.20283
-0.203148
-0.20347
-0.203795
-0.204117
-0.204427
-0.204716
-0.204973
-0.205186
-0.205341
-0.205423
-0.205413
-0.205292
-0.205034
-0.204611
-0.203991
-0.203135
-0.201989
-0.2005
-0.198625
-0.196311
-0.193491
-0.190101
-0.186078
-0.181346
-0.175856
-0.169507
-0.162299
-0.15406
-0.14494
-0.134595
-0.123572
-0.110995
-0.0979434
-0.0838669
-0.0686184
-0.0550224
-0.0356791
-0.0275435
0.00144109
-0.202597
-0.202779
-0.203056
-0.203373
-0.203698
-0.204032
-0.204366
-0.204694
-0.205004
-0.205285
-0.205526
-0.205713
-0.205828
-0.205854
-0.205767
-0.205542
-0.205148
-0.204548
-0.203699
-0.202556
-0.201031
-0.199107
-0.196718
-0.193799
-0.190284
-0.186116
-0.181224
-0.175571
-0.169065
-0.16173
-0.153395
-0.144244
-0.133915
-0.122973
-0.110607
-0.0977839
-0.0839461
-0.0689946
-0.0556165
-0.0364029
-0.0283267
0.000867963
-0.202934
-0.203046
-0.203302
-0.203618
-0.203944
-0.204285
-0.204631
-0.204975
-0.205305
-0.20561
-0.205878
-0.206095
-0.206243
-0.206304
-0.206252
-0.206061
-0.205696
-0.205118
-0.20428
-0.203132
-0.201604
-0.199618
-0.197161
-0.194149
-0.190518
-0.186214
-0.181173
-0.175369
-0.168717
-0.161265
-0.152841
-0.143668
-0.133355
-0.122504
-0.11027
-0.0977357
-0.0841164
-0.0694412
-0.0562475
-0.0371958
-0.0290514
0.000275717
-0.2033
-0.203323
-0.203556
-0.20387
-0.204196
-0.204542
-0.204899
-0.205258
-0.205607
-0.205934
-0.206229
-0.206475
-0.206656
-0.206751
-0.206735
-0.206578
-0.206243
-0.20569
-0.204865
-0.203716
-0.202179
-0.200147
-0.19763
-0.194533
-0.190795
-0.186367
-0.181186
-0.175243
-0.168456
-0.160898
-0.152393
-0.143204
-0.132911
-0.122162
-0.110064
-0.0977495
-0.0843363
-0.069915
-0.0568798
-0.0380088
-0.0297492
-0.000334084
-0.203696
-0.203593
-0.203801
-0.204115
-0.20444
-0.204791
-0.205158
-0.20553
-0.205896
-0.206246
-0.206566
-0.206841
-0.207054
-0.207183
-0.207202
-0.20708
-0.206777
-0.20625
-0.205443
-0.204297
-0.202742
-0.200682
-0.198113
-0.194941
-0.191105
-0.186563
-0.181255
-0.175186
-0.168275
-0.160623
-0.152044
-0.142847
-0.132573
-0.121928
-0.109963
-0.0978537
-0.0846276
-0.0704375
-0.057527
-0.0387912
-0.0304057
-0.000958302
-0.204157
-0.203839
-0.204026
-0.204342
-0.204664
-0.205019
-0.205393
-0.205779
-0.206161
-0.206531
-0.206875
-0.207178
-0.207423
-0.207586
-0.207641
-0.207554
-0.207285
-0.206786
-0.206
-0.204862
-0.203299
-0.201215
-0.198598
-0.19536
-0.191436
-0.186792
-0.181369
-0.175186
-0.168163
-0.160428
-0.151785
-0.142585
-0.132331
-0.121792
-0.109944
-0.0980326
-0.0849638
-0.0709935
-0.058191
-0.03954
-0.0310003
-0.0015907
-0.204736
-0.204049
-0.204218
-0.20454
-0.204858
-0.205216
-0.205592
-0.205991
-0.206388
-0.206776
-0.207144
-0.207474
-0.20775
-0.207948
-0.208038
-0.207988
-0.207754
-0.207285
-0.206523
-0.205399
-0.203832
-0.201735
-0.199076
-0.19578
-0.191779
-0.187045
-0.181518
-0.175234
-0.168111
-0.160305
-0.151605
-0.142408
-0.132171
-0.12174
-0.109998
-0.0982673
-0.0853454
-0.071555
-0.0588546
-0.0402548
-0.0315219
-0.00222499
-0.205106
-0.204307
-0.204379
-0.204698
-0.205012
-0.205375
-0.205737
-0.206153
-0.206564
-0.20697
-0.20736
-0.207717
-0.208024
-0.208255
-0.208383
-0.208369
-0.208171
-0.207736
-0.206999
-0.205893
-0.204328
-0.202229
-0.199532
-0.196189
-0.192122
-0.187309
-0.181691
-0.175319
-0.168106
-0.160242
-0.151491
-0.142303
-0.132091
-0.12175
-0.110112
-0.0985443
-0.0857573
-0.0721128
-0.0595031
-0.0409311
-0.0319645
-0.00285543
-0.205355
-0.20461
-0.204502
-0.204807
-0.205117
-0.205462
-0.205843
-0.206257
-0.206678
-0.207101
-0.207512
-0.207895
-0.208232
-0.208498
-0.208662
-0.208687
-0.208526
-0.208125
-0.207418
-0.206333
-0.204774
-0.202681
-0.199955
-0.196575
-0.192452
-0.187573
-0.181877
-0.17543
-0.168141
-0.160224
-0.151434
-0.142256
-0.132067
-0.121817
-0.110271
-0.0988489
-0.0861861
-0.0726564
-0.0601252
-0.0415644
-0.0323247
-0.00347668
-0.20565
-0.204907
-0.204582
-0.20487
-0.205168
-0.205494
-0.205875
-0.206289
-0.206718
-0.207156
-0.207587
-0.207996
-0.208363
-0.208663
-0.208864
-0.208928
-0.208806
-0.208442
-0.207767
-0.206708
-0.20516
-0.203077
-0.200335
-0.196927
-0.19276
-0.187827
-0.182065
-0.175555
-0.168201
-0.160243
-0.151419
-0.142256
-0.13209
-0.121925
-0.110464
-0.0991669
-0.0866197
-0.0731748
-0.0607107
-0.0421516
-0.0326014
-0.004084
-0.205982
-0.205211
-0.204625
-0.204884
-0.205159
-0.205455
-0.205825
-0.206238
-0.206675
-0.207126
-0.207577
-0.208011
-0.208408
-0.208742
-0.20898
-0.209083
-0.209
-0.208675
-0.208035
-0.207004
-0.205472
-0.203405
-0.200658
-0.197232
-0.193033
-0.188058
-0.182243
-0.175682
-0.168275
-0.160285
-0.151435
-0.142289
-0.132147
-0.122058
-0.110677
-0.0994847
-0.0870467
-0.0736583
-0.0612498
-0.0426907
-0.032795
-0.00467336
-0.206338
-0.205537
-0.204639
-0.204847
-0.20508
-0.205332
-0.205684
-0.206093
-0.206535
-0.206998
-0.207469
-0.207928
-0.208355
-0.208723
-0.208999
-0.209141
-0.209099
-0.208813
-0.20821
-0.207213
-0.205699
-0.203655
-0.200913
-0.197479
-0.193259
-0.188255
-0.1824
-0.175802
-0.168352
-0.16034
-0.151471
-0.142343
-0.132226
-0.122204
-0.110899
-0.0997895
-0.0874557
-0.0740984
-0.0617338
-0.0431799
-0.0329073
-0.00524143
-0.206713
-0.205862
-0.204613
-0.204748
-0.204914
-0.205108
-0.205438
-0.205841
-0.206285
-0.206762
-0.207253
-0.207738
-0.208196
-0.208598
-0.208911
-0.209093
-0.209092
-0.208847
-0.208283
-0.207322
-0.205824
-0.203813
-0.201088
-0.197657
-0.193427
-0.188407
-0.182524
-0.175901
-0.16842
-0.160395
-0.151512
-0.142404
-0.132314
-0.122348
-0.111117
-0.100069
-0.0878355
-0.074487
-0.0621546
-0.0436171
-0.0329411
-0.00578543
-0.207049
-0.206079
-0.204504
-0.204569
-0.204641
-0.204766
-0.205073
-0.205471
-0.205921
-0.206411
-0.206923
-0.207435
-0.207924
-0.20836
-0.20871
-0.208931
-0.208971
-0.208767
-0.208245
-0.207322
-0.205787
-0.203865
-0.201171
-0.197754
-0.193525
-0.188501
-0.182603
-0.175967
-0.168466
-0.160436
-0.151548
-0.14246
-0.132398
-0.122479
-0.111319
-0.100312
-0.0881777
-0.0748188
-0.0625083
-0.0440017
-0.0329029
-0.00630351
-0.207275
-0.206063
-0.204282
-0.204304
-0.20425
-0.204297
-0.204581
-0.204974
-0.20543
-0.205934
-0.206466
-0.207004
-0.207522
-0.207992
-0.208378
-0.208638
-0.208719
-0.20856
-0.208083
-0.207214
-0.20588
-0.203819
-0.201153
-0.197761
-0.193548
-0.188534
-0.182635
-0.176
-0.168492
-0.160467
-0.151581
-0.142515
-0.132482
-0.1226
-0.111511
-0.100524
-0.0884876
-0.0750991
-0.062804
-0.0443382
-0.032807
-0.00679709
-0.208173
-0.205778
-0.203895
-0.203867
-0.203641
-0.203601
-0.203863
-0.204259
-0.204726
-0.205251
-0.205809
-0.206378
-0.206931
-0.207438
-0.207864
-0.208168
-0.208296
-0.208188
-0.207763
-0.206946
-0.205621
-0.203646
-0.201028
-0.197678
-0.193498
-0.188514
-0.182633
-0.176016
-0.168515
-0.160503
-0.151627
-0.142581
-0.132579
-0.122719
-0.111699
-0.100709
-0.0887686
-0.0753325
-0.063042
-0.0446338
-0.0326529
-0.00727274
-0.207967
-0.203412
-0.202534
-0.202757
-0.20247
-0.202447
-0.202763
-0.203217
-0.203739
-0.204316
-0.204928
-0.205551
-0.206158
-0.20672
-0.207199
-0.207553
-0.207728
-0.207664
-0.207282
-0.206493
-0.205196
-0.203309
-0.200744
-0.197439
-0.193294
-0.18834
-0.182479
-0.175881
-0.168392
-0.160395
-0.151537
-0.142507
-0.132549
-0.1227
-0.11176
-0.100754
-0.0889057
-0.0754411
-0.0631126
-0.0448541
-0.0323605
-0.00773007
-0.192664
-0.194687
-0.199475
-0.201046
-0.201058
-0.201173
-0.201597
-0.202145
-0.202741
-0.203377
-0.204045
-0.204721
-0.205377
-0.205984
-0.206506
-0.2069
-0.207114
-0.20709
-0.206758
-0.206046
-0.204795
-0.20281
-0.200196
-0.196859
-0.192684
-0.187701
-0.181821
-0.175207
-0.167726
-0.159734
-0.150929
-0.141923
-0.132071
-0.122244
-0.111454
-0.10045
-0.0887251
-0.075307
-0.0628569
-0.0449843
-0.0317325
-0.00828283
-0.191945
-0.19212
-0.1965
-0.198265
-0.19834
-0.198474
-0.199016
-0.199734
-0.200479
-0.201234
-0.202
-0.202762
-0.203491
-0.204155
-0.204719
-0.205142
-0.205368
-0.205336
-0.204966
-0.204167
-0.20284
-0.200937
-0.198337
-0.195004
-0.190841
-0.185884
-0.180047
-0.173491
-0.166093
-0.158188
-0.14951
-0.140601
-0.130919
-0.121163
-0.110577
-0.0995998
-0.0880478
-0.0747079
-0.0621753
-0.0447884
-0.03083
-0.00875329
-0.189095
-0.189035
-0.191916
-0.193626
-0.194111
-0.194525
-0.195276
-0.196204
-0.197145
-0.198064
-0.198969
-0.199851
-0.200683
-0.20143
-0.202059
-0.202527
-0.202781
-0.202761
-0.202391
-0.201596
-0.200287
-0.198377
-0.195778
-0.192462
-0.188336
-0.183437
-0.177679
-0.171222
-0.163948
-0.156172
-0.147656
-0.138873
-0.129382
-0.119716
-0.109333
-0.0984083
-0.0870101
-0.0738023
-0.0611879
-0.0443441
-0.029836
-0.00905048
-0.183749
-0.184501
-0.186077
-0.187431
-0.188331
-0.189185
-0.19023
-0.191395
-0.192559
-0.193683
-0.194769
-0.19581
-0.196781
-0.197648
-0.198376
-0.198924
-0.19924
-0.19927
-0.198941
-0.198186
-0.196914
-0.195041
-0.192481
-0.189227
-0.185184
-0.180391
-0.174762
-0.168449
-0.161347
-0.153734
-0.145417
-0.136786
-0.127503
-0.117946
-0.10776
-0.09692
-0.08565
-0.0726362
-0.059938
-0.0436889
-0.0287822
-0.00919418
-0.175921
-0.178083
-0.179131
-0.180105
-0.18125
-0.182536
-0.183918
-0.185334
-0.186725
-0.188066
-0.189354
-0.190578
-0.191712
-0.192724
-0.193578
-0.194234
-0.194644
-0.194756
-0.194501
-0.193816
-0.192614
-0.190835
-0.188367
-0.18522
-0.181312
-0.176675
-0.171229
-0.16511
-0.158227
-0.150821
-0.14274
-0.134292
-0.125236
-0.115819
-0.105826
-0.0951141
-0.0839602
-0.0711994
-0.0584473
-0.0428183
-0.0276897
-0.00919697
-0.166285
-0.169932
-0.171095
-0.171907
-0.173204
-0.17485
-0.176572
-0.178247
-0.179855
-0.181401
-0.182884
-0.184289
-0.185587
-0.186749
-0.187737
-0.188515
-0.189035
-0.189249
-0.18909
-0.188502
-0.187402
-0.185739
-0.183439
-0.180442
-0.176713
-0.172281
-0.167067
-0.161188
-0.15457
-0.147412
-0.1396
-0.131372
-0.122562
-0.113321
-0.103526
-0.0929893
-0.0819566
-0.0694994
-0.0567518
-0.041745
-0.0265797
-0.00908055
-0.155855
-0.160585
-0.162184
-0.163104
-0.164556
-0.166485
-0.168512
-0.170439
-0.172252
-0.173981
-0.175637
-0.177203
-0.178651
-0.17995
-0.181064
-0.181959
-0.182591
-0.182913
-0.182863
-0.182389
-0.181418
-0.17991
-0.177795
-0.174981
-0.171466
-0.167272
-0.162328
-0.156727
-0.150409
-0.143534
-0.13602
-0.128047
-0.1195
-0.110474
-0.100887
-0.0905716
-0.0796815
-0.0675659
-0.054899
-0.0405
-0.0254707
-0.00887159
-0.145194
-0.150594
-0.152727
-0.153941
-0.155594
-0.157751
-0.160031
-0.162189
-0.164193
-0.166086
-0.167891
-0.169596
-0.171173
-0.172591
-0.173817
-0.174818
-0.175553
-0.175979
-0.176039
-0.175686
-0.17485
-0.173488
-0.171523
-0.168974
-0.165704
-0.161768
-0.157114
-0.151816
-0.145819
-0.139254
-0.132057
-0.124368
-0.1161
-0.107325
-0.0979617
-0.0879059
-0.077192
-0.0654427
-0.0529394
-0.0391244
-0.0243766
-0.00859692
-0.134633
-0.140408
-0.143034
-0.144619
-0.146508
-0.148863
-0.151347
-0.153707
-0.155887
-0.157929
-0.159866
-0.161693
-0.163382
-0.164904
-0.166227
-0.167322
-0.16815
-0.168673
-0.168839
-0.168604
-0.167904
-0.166701
-0.164937
-0.162592
-0.15957
-0.155905
-0.151551
-0.146565
-0.1409
-0.13466
-0.12779
-0.120408
-0.11243
-0.103934
-0.0948149
-0.0850479
-0.0745501
-0.0631805
-0.0509193
-0.0376621
-0.0233071
-0.00828041
-0.124387
-0.130315
-0.133337
-0.135287
-0.137423
-0.139956
-0.14261
-0.145141
-0.14748
-0.149661
-0.151717
-0.153652
-0.155441
-0.157056
-0.158467
-0.159647
-0.160562
-0.161176
-0.161442
-0.16132
-0.160754
-0.159708
-0.158126
-0.155985
-0.153211
-0.149818
-0.145761
-0.141088
-0.135753
-0.129844
-0.123304
-0.11624
-0.108564
-0.100367
-0.0915129
-0.0820548
-0.071813
-0.0608295
-0.0488769
-0.0361534
-0.0222683
-0.00794108
-0.114533
-0.120474
-0.123788
-0.12606
-0.128427
-0.131119
-0.133915
-0.136589
-0.139069
-0.141376
-0.143543
-0.145576
-0.147456
-0.149156
-0.150649
-0.15191
-0.152907
-0.153608
-0.153971
-0.15396
-0.153522
-0.152627
-0.151216
-0.149274
-0.146744
-0.143615
-0.139845
-0.135478
-0.130466
-0.124886
-0.118675
-0.111935
-0.104567
-0.0966813
-0.0881134
-0.0789775
-0.0690275
-0.0584326
-0.0468401
-0.0346306
-0.0212633
-0.0075928
-0.105106
-0.110972
-0.114489
-0.117022
-0.119588
-0.122417
-0.125327
-0.12812
-0.13072
-0.133139
-0.135406
-0.137529
-0.139493
-0.141274
-0.142845
-0.144183
-0.145259
-0.146046
-0.146504
-0.1466
-0.146289
-0.145539
-0.144298
-0.142552
-0.140245
-0.137368
-0.133875
-0.129805
-0.125107
-0.119849
-0.113962
-0.107547
-0.100494
-0.0929261
-0.0846614
-0.0758566
-0.0662278
-0.0560226
-0.0448272
-0.0331168
-0.0202925
-0.00724487
-0.0961284
-0.10186
-0.105503
-0.108234
-0.110959
-0.113897
-0.116897
-0.119783
-0.122481
-0.124995
-0.127351
-0.129555
-0.131596
-0.133451
-0.135096
-0.136509
-0.137663
-0.138534
-0.139085
-0.139288
-0.139099
-0.138491
-0.137416
-0.135857
-0.133762
-0.131126
-0.127901
-0.124117
-0.119722
-0.114777