/*--------------------------------*- C++ -*----------------------------------*\
  =========                 |
  \\      /  F ield         | OpenFOAM: The Open Source CFD Toolbox
   \\    /   O peration     | Website:  https://openfoam.org
    \\  /    A nd           | Version:  7
     \\/     M anipulation  |
\*---------------------------------------------------------------------------*/
FoamFile
{
    version     2.0;
    format      ascii;
    class       surfaceScalarField;
    location    "35";
    object      phi;
}
// * * * * * * * * * * * * * * * * * * * * * * * * * * * * * * * * * * * * * //

dimensions      [0 3 -1 0 0 0 0];

internalField   nonuniform List<scalar> 
25237
(
-7.27172e-06
7.97524e-06
-7.03513e-07
-2.59429e-05
2.06328e-05
-1.96163e-06
-5.41717e-05
3.14033e-05
-3.17445e-06
-9.01619e-05
4.0314e-05
-4.32382e-06
-0.000132287
4.75516e-05
-5.42602e-06
-0.000179233
5.34802e-05
-6.5344e-06
-0.000230151
5.86464e-05
-7.72877e-06
-0.000284859
6.38076e-05
-9.09983e-06
-0.000344001
6.98751e-05
-1.07327e-05
7.79859e-05
-1.2698e-05
-0.000409289
-7.17044e-06
1.51457e-05
-2.55955e-05
3.90579e-05
-5.34504e-05
5.92582e-05
-8.89389e-05
7.58025e-05
-0.000130417
8.90292e-05
-0.000176527
9.95904e-05
-0.000226354
0.000108474
-0.000279629
0.000117083
-0.000336904
0.00012715
0.000140857
-0.000399775
-6.98568e-06
2.21313e-05
-2.49584e-05
5.70306e-05
-5.21207e-05
8.64204e-05
-8.66729e-05
0.000110355
-0.000126932
0.000129289
-0.000171461
0.000144119
-0.000219212
0.000156224
-0.000269743
0.000167614
-0.000323426
0.000180833
0.000199061
-0.00038163
-6.72466e-06
2.8856e-05
-2.40528e-05
7.43587e-05
-5.02212e-05
0.000112589
-8.3422e-05
0.000143556
-0.000121914
0.000167781
-0.00016414
0.000186345
-0.000208855
0.00020094
-0.000255358
0.000214117
-0.000303755
0.000229229
0.000250344
-0.000355037
-6.39741e-06
3.52534e-05
-2.29082e-05
9.08695e-05
-4.78055e-05
0.000137486
-7.92657e-05
0.000175016
-0.000115471
0.000203986
-0.000154705
0.000225579
-0.000195462
0.000241697
-0.000236687
0.000255341
-0.000278132
0.000270674
0.000292424
-0.000320212
-6.01615e-06
4.12696e-05
-2.15603e-05
0.000106414
-4.49375e-05
0.000160863
-7.42986e-05
0.000204377
-0.000107729
0.000237416
-0.000143318
0.000261168
-0.000179234
0.000277613
-0.00021396
0.000290067
-0.000246815
0.000303529
0.000322949
-0.00027734
-5.5945e-06
4.68641e-05
-2.00485e-05
0.000120868
-4.16871e-05
0.000182502
-6.86215e-05
0.000231311
-9.88204e-05
0.000267615
-0.000130145
0.000292493
-0.000160369
0.000307837
-0.000187394
0.000317091
-0.00021002
0.000326156
0.000339433
-0.000226504
-5.14665e-06
5.20107e-05
-1.84133e-05
0.000134134
-3.81243e-05
0.000202213
-6.23316e-05
0.000255518
-8.88654e-05
0.000294149
-0.000115325
0.000318953
-0.000139023
0.000331535
-0.000157133
0.000335202
-0.000167838
0.00033686
0.000339208
-0.000167612
-4.68646e-06
5.66972e-05
-1.66932e-05
0.000146141
-3.43127e-05
0.000219832
-5.55108e-05
0.000276716
-7.7953e-05
0.000316591
-9.89409e-05
0.000339941
-0.00011526
0.000347854
-0.000123177
0.00034312
-0.000120125
0.000333808
0.000319509
-0.000100427
-4.22662e-06
6.09238e-05
-1.49219e-05
0.000156836
-3.03035e-05
0.000235214
-4.82143e-05
0.000294627
-6.61204e-05
0.000334497
-8.09854e-05
0.000354805
-8.90015e-05
0.00035587
-8.52717e-05
0.00033939
-6.61613e-05
0.000314698
0.000278937
-2.55891e-05
-3.7779e-06
6.47017e-05
-1.31254e-05
0.000166184
-2.61294e-05
0.000248218
-4.04586e-05
0.000308956
-5.33324e-05
0.000347371
-6.13257e-05
0.000362799
-6.00055e-05
0.00035455
-4.30678e-05
0.000322452
-1.62547e-06
0.000273255
0.000215317
6.19951e-05
-3.34853e-06
6.80502e-05
-1.13201e-05
0.000174156
-2.17993e-05
0.000258697
-3.22117e-05
0.000319369
-3.94594e-05
0.000354619
-3.96529e-05
0.000362992
-2.76809e-05
0.000342578
2.89126e-06
0.00029188
6.44016e-05
0.000211745
0.000117075
0.000162643
-2.94364e-06
7.09939e-05
-9.51051e-06
0.000180722
-1.72947e-05
0.000266481
-2.33857e-05
0.00032546
-2.42622e-05
0.000355495
-1.54538e-05
0.000354184
9.14187e-06
0.000317982
5.80416e-05
0.00024298
0.000143827
0.00012596
-1.7745e-05
0.000278646
-2.56479e-06
7.35587e-05
-7.68771e-06
0.000185845
-1.25669e-05
0.000271361
-1.3836e-05
0.000326729
-7.40143e-06
0.000349061
1.19624e-05
0.00033482
5.1368e-05
0.000278576
0.000121054
0.000173294
0.000237581
9.4334e-06
-0.000193875
0.000413711
-2.2094e-06
7.57681e-05
-5.82755e-06
0.000189463
-7.53427e-06
0.000273067
-3.3568e-06
0.000322552
1.15634e-05
0.000334141
4.34682e-05
0.000302915
0.000100796
0.000221248
0.0001954
7.869e-05
0.000349297
-0.000144464
-0.000415468
0.00057089
-1.86989e-06
7.7638e-05
-3.88814e-06
0.000191482
-2.07488e-06
0.000271254
8.31416e-06
0.000312162
3.31669e-05
0.000309288
8.00599e-05
0.000256022
0.000159127
0.000142181
0.000283878
-4.60613e-05
0.000482801
-0.000343387
-0.000684693
0.000752026
-1.5326e-06
7.91706e-05
-1.80434e-06
0.000191753
3.95884e-06
0.000265491
2.15076e-05
0.000294614
5.80284e-05
0.000272767
0.000122824
0.000191226
0.000228171
3.68338e-05
0.000389328
-0.000207218
0.000640853
-0.000594912
-0.00100038
0.000956538
-1.17776e-06
8.03483e-05
5.1996e-07
0.000190056
1.07775e-05
0.000255233
3.66231e-05
0.000268768
8.68476e-05
0.000222543
0.00017289
0.000105184
0.000309616
-9.98926e-05
0.000514432
-0.000412034
0.000823916
-0.000904395
-0.001357
0.00118054
-7.83982e-07
8.11323e-05
3.13022e-06
0.000186142
1.86321e-05
0.000239731
5.41345e-05
0.000233266
0.000120396
0.000156281
0.000231375
-5.79455e-06
0.000404826
-0.000273343
0.000661283
-0.000668492
0.00102948
-0.0012726
-0.00174759
0.00142008
-3.02424e-07
8.14347e-05
6.24169e-06
0.000179597
2.78342e-05
0.000218139
7.45847e-05
0.000186515
0.000159493
7.13727e-05
0.000299284
-0.000145586
0.000514462
-0.000488521
0.000829385
-0.000983415
0.00125441
-0.00169762
-0.00218008
0.00168689
3.34665e-07
8.11001e-05
9.99234e-06
0.00016994
3.87301e-05
0.000189401
9.85674e-05
0.000126678
0.000204959
-3.50184e-05
0.000377388
-0.000318015
0.000638155
-0.000749288
0.0010126
-0.00135786
0.00149035
-0.00217536
-0.00288948
0.00219974
1.1212e-06
7.99789e-05
1.45511e-05
0.00015651
5.16881e-05
0.000152264
0.000126684
5.16823e-05
0.000257533
-0.000165868
0.00046609
-0.000526572
0.000774763
-0.00105796
0.00120342
-0.00178652
0.00173018
-0.00270212
-0.00358951
0.00243022
2.1486e-06
7.78303e-05
2.00986e-05
0.00013856
6.70666e-05
0.000105296
0.000159471
-4.07222e-05
0.000317732
-0.000324129
0.000565149
-0.000773989
0.000921869
-0.00141468
0.00139586
-0.00226052
0.00195807
-0.00326433
-0.00426145
0.00263001
3.46111e-06
7.43692e-05
2.67986e-05
0.000115222
8.51729e-05
4.69218e-05
0.00019731
-0.000152859
0.000385646
-0.000512466
0.000673306
-0.00106165
0.00107484
-0.00181622
0.00158258
-0.00276826
0.00215646
-0.00383821
-0.00489029
0.0027853
5.10141e-06
6.92678e-05
3.47838e-05
8.55399e-05
0.000106221
-2.45149e-05
0.000240325
-0.000286963
0.000460738
-0.000732878
0.000788018
-0.00138893
0.00122709
-0.00225529
0.00175305
-0.00329422
0.0023155
-0.00440066
-0.00546163
0.00288684
7.10349e-06
6.21643e-05
4.41437e-05
4.84998e-05
0.000130293
-0.000110665
0.000288306
-0.000444976
0.000541694
-0.000986266
0.000905374
-0.00175261
0.00137093
-0.00272084
0.00189745
-0.00382074
0.00242923
-0.00493243
-0.00596762
0.00293521
9.49039e-06
5.26739e-05
5.49157e-05
3.07447e-06
0.000157319
-0.000213068
0.00034065
-0.000628307
0.000626371
-0.00127199
0.00102034
-0.00214658
0.00149871
-0.00319922
0.00200877
-0.0043308
0.00249645
-0.00542011
-0.00640714
0.00293597
1.22734e-05
4.04005e-05
6.70796e-05
-5.17317e-05
0.000187051
-0.00033304
0.000396326
-0.000837581
0.000711852
-0.00158751
0.00112733
-0.00256205
0.001604
-0.00367589
0.00208362
-0.00481041
0.00251987
-0.00585636
-0.00678369
0.00289642
1.54518e-05
2.49487e-05
8.0553e-05
-0.000116833
0.000219055
-0.000471542
0.000453876
-0.0010724
0.000794662
-0.0019283
0.00122103
-0.00298842
0.0016825
-0.00413735
0.00212196
-0.00524988
0.0025046
-0.006239
-0.00710354
0.00282444
1.90123e-05
5.93635e-06
9.51879e-05
-0.000193008
0.000252705
-0.00062906
0.000511464
-0.00133116
0.000871108
-0.00228794
0.0012971
-0.00341442
0.00173232
-0.00457257
0.00212627
-0.00564383
0.00245683
-0.00656956
-0.00737397
0.00272726
2.29279e-05
-1.69916e-05
0.000110768
-0.000280848
0.000287187
-0.000805478
0.000566977
-0.00161095
0.000937713
-0.00265868
0.0013527
-0.0038294
0.00175378
-0.00497366
0.00210053
-0.00599058
0.00238284
-0.00685187
-0.00760221
0.00261109
2.71571e-05
-4.41487e-05
0.000127006
-0.000380697
0.000321517
-0.00099999
0.000618194
-0.00190763
0.000991623
-0.00303211
0.00138657
-0.00422434
0.0017488
-0.00533589
0.00204935
-0.00629113
0.00228836
-0.00709089
-0.0077948
0.00248095
3.16418e-05
-7.57905e-05
0.000143547
-0.000492602
0.000354591
-0.00121103
0.000662996
-0.00221603
0.00103088
-0.00339999
0.00139891
-0.00459237
0.0017203
-0.00565728
0.0019774
-0.00654823
0.00217832
-0.00729181
-0.00795725
0.00234077
3.63072e-05
-0.000112098
0.000159977
-0.000616273
0.000385243
-0.0014363
0.000699575
-0.00253037
0.00105451
-0.00375493
0.001391
-0.00492886
0.00167165
-0.00593794
0.00188898
-0.00676556
0.00205677
-0.0074596
-0.008094
0.00219352
4.10624e-05
-0.00015316
0.000175836
-0.000751046
0.000412336
-0.0016728
0.000726593
-0.00284462
0.00106248
-0.00409081
0.00136483
-0.00523121
0.0016063
-0.0061794
0.00178788
-0.00694714
0.00192691
-0.00759864
-0.00820848
0.0020414
4.58019e-05
-0.000198962
0.000190638
-0.000895882
0.000434853
-0.00191701
0.000743264
-0.00315303
0.00105547
-0.00440301
0.00132276
-0.0054985
0.00152747
-0.00638412
0.00167725
-0.00709692
0.00179124
-0.00771262
-0.00830328
0.00188603
5.04097e-05
-0.000249372
0.000203902
-0.00104937
0.000451972
-0.00216508
0.000749349
-0.00345041
0.00103469
-0.00468836
0.00126725
-0.00573106
0.00143808
-0.00655495
0.0015597
-0.00721853
0.00165164
-0.00780456
-0.00838024
0.0017286
5.47632e-05
-0.000304135
0.000215178
-0.00120979
0.000463125
-0.00241303
0.000745086
-0.00373237
0.00100169
-0.00494496
0.00120071
-0.00593008
0.00134065
-0.00669489
0.00143729
-0.00731517
0.00150953
-0.0078768
-0.0084407
0.00156999
5.87393e-05
-0.000362874
0.000224075
-0.00137513
0.000468015
-0.00265697
0.000731087
-0.00399544
0.00095813
-0.00517201
0.00112533
-0.00609728
0.00123729
-0.00680685
0.00131164
-0.00738951
0.00136599
-0.00793115
-0.00848558
0.00141086
6.222e-05
-0.000425094
0.000230287
-0.00154319
0.000466611
-0.0028933
0.000708221
-0.00423705
0.000905699
-0.00536948
0.0010431
-0.00623468
0.00112975
-0.0068935
0.00118402
-0.00744378
0.00122181
-0.00796894
-0.00851551
0.00125174
6.50977e-05
-0.000490192
0.000233604
-0.0017117
0.000459111
-0.0031188
0.000677509
-0.00445545
0.000846014
-0.00553799
0.00095573
-0.0063444
0.00101943
-0.0069572
0.00105539
-0.00747974
0.00107761
-0.00799116
-0.00853092
0.00109302
6.72799e-05
-0.000557472
0.000233921
-0.00187834
0.000445894
-0.00333077
0.000640037
-0.00464959
0.000780565
-0.00567852
0.000864672
-0.00642851
0.000907479
-0.00700001
0.000926517
-0.00749878
0.000933845
-0.00799849
-0.00853209
0.000935007
6.86933e-05
-0.000626165
0.000231234
-0.00204088
0.000427467
-0.00352701
0.000596891
-0.00481902
0.000710687
-0.00579231
0.000771145
-0.00648897
0.000794788
-0.00702365
0.000797972
-0.00750196
0.000790896
-0.00799141
-0.00851913
0.000777942
6.92857e-05
-0.000695451
0.000225628
-0.00219722
0.000404418
-0.0037058
0.000549113
-0.00496371
0.000637554
-0.00588075
0.000676157
-0.00652757
0.000682067
-0.00702956
0.000670205
-0.0074901
0.000649057
-0.00797026
-0.00849209
0.000622013
6.90271e-05
-0.000764478
0.000217263
-0.00234546
0.00037737
-0.0038659
0.00049767
-0.00508401
0.00056218
-0.00594526
0.000580535
-0.00654592
0.000569881
-0.00701891
0.000543561
-0.00746378
0.000508572
-0.00793527
-0.00845089
0.000467372
6.79087e-05
-0.000832387
0.000206357
-0.00248391
0.000346951
-0.0040065
0.000443441
-0.0051805
0.000485428
-0.00598725
0.00048496
-0.00654546
0.000458702
-0.00699265
0.000418348
-0.00742343
0.00036959
-0.00788652
-0.00839548
0.000314178
6.59426e-05
-0.000898329
0.000193164
-0.00261113
0.000313768
-0.0041271
0.000387205
-0.00525394
0.000408025
-0.00600807
0.000389989
-0.00652742
0.000348949
-0.00695161
0.00029496
-0.00736944
0.000232156
-0.00782371
-0.00832566
0.000162344
6.31599e-05
-0.000961489
0.000177963
-0.00272593
0.000278393
-0.00422753
0.000329646
-0.00530519
0.000330576
-0.006009
0.000296059
-0.0064929
0.000240945
-0.00689649
0.000173839
-0.00730233
9.70689e-05
-0.00774694
-0.0082356
7.00605e-06
5.96106e-05
-0.0010211
0.000161067
-0.00282739
0.000241358
-0.00430782
0.000271355
-0.00533519
0.000253579
-0.00599122
0.000203517
-0.00644284
0.000134873
-0.00682785
5.46928e-05
-0.00722215
-3.379e-05
-0.00765846
-0.00813582
-0.000133568
5.53579e-05
-0.00107646
0.000142768
-0.0029148
0.000203146
-0.0043682
0.00021284
-0.00534489
0.000177442
-0.00595583
0.000112648
-0.00637805
3.07416e-05
-0.00674594
-6.18452e-05
-0.00712957
-0.000164676
-0.00755563
-0.00802493
-0.000275573
5.04761e-05
-0.00112693
0.000123347
-0.00298767
0.000164192
-0.00440905
0.000154529
-0.00533522
0.000102494
-0.00590379
2.35913e-05
-0.00629914
-7.06118e-05
-0.00665174
-0.000175605
-0.00702457
-0.000291435
-0.0074398
-0.00790081
-0.000415554
4.50484e-05
-0.00117198
0.000103078
-0.0030457
0.000124882
-0.00443085
9.67779e-05
-0.00530712
2.90344e-05
-0.00583605
-6.30995e-05
-0.00620701
-0.000169552
-0.00654529
-0.000286865
-0.00690726
-0.000415168
-0.00731149
-0.00776338
-0.000552597
3.91633e-05
-0.00121115
8.22359e-05
-0.00308877
8.55411e-05
-0.00443416
3.99591e-05
-0.00526154
-4.27077e-05
-0.00575338
-0.000147618
-0.0061021
-0.00026602
-0.00642688
-0.000395282
-0.006778
-0.000535907
-0.00717087
-0.00761291
-0.000686374
3.2904e-05
-0.00124405
6.10918e-05
-0.00311696
4.65042e-05
-0.00441957
-1.56492e-05
-0.00519938
-0.000112578
-0.00565645
-0.000229849
-0.00598483
-0.000359851
-0.00629688
-0.000500769
-0.00663708
-0.000653518
-0.00701812
-0.00744991
-0.000816522
2.63659e-05
-0.00127042
3.98315e-05
-0.00313042
8.90043e-06
-0.00438864
-7.01766e-05
-0.00512031
-0.000180552
-0.00554608
-0.00030967
-0.00585571
-0.000450953
-0.0061556
-0.000603263
-0.00648477
-0.000767848
-0.00685353
-0.00727509
-0.000942669
1.97518e-05
-0.00129017
1.8666e-05
-0.00312934
-3.00855e-05
-0.00433989
-0.000123291
-0.0050271
-0.000246447
-0.00542292
-0.000386992
-0.00571517
-0.000539255
-0.00600334
-0.000702696
-0.00632133
-0.000878785
-0.00667745
-0.00708897
-0.0010649
1.3006e-05
-0.00130317
-4.84648e-07
-0.00311585
-6.73747e-05
-0.004273
-0.000174937
-0.00491954
-0.000310198
-0.00528766
-0.000461752
-0.00556361
-0.000624722
-0.00584037
-0.000799038
-0.00614701
-0.000986371
-0.00649011
-0.00689137
-0.00118397
5.64112e-06
-0.00130881
-2.40435e-05
-0.00308616
-0.000103832
-0.00419321
-0.000224835
-0.00479853
-0.000371708
-0.00514079
-0.00053391
-0.00540141
-0.000707403
-0.00566687
-0.000892443
-0.00596197
-0.00109055
-0.00629201
-0.00668242
-0.00129949
-1.94068e-06
-0.00130687
-4.52137e-05
-0.00304289
-0.000139191
-0.00409923
-0.000272882
-0.00466484
-0.000430857
-0.00498281
-0.000603396
-0.00522887
-0.000787366
-0.0054829
-0.000983312
-0.00576603
-0.00119101
-0.00608431
-0.00646391
-0.00140953
-8.82574e-06
-0.00129805
-6.55529e-05
-0.00298616
-0.000173282
-0.0039915
-0.000319018
-0.00451911
-0.000487556
-0.00481427
-0.000670074
-0.00504635
-0.000864354
-0.00528862
-0.00107148
-0.00555891
-0.00129206
-0.00586372
-0.00624675
-0.00150922
-1.58508e-05
-0.0012822
-8.52153e-05
-0.0029168
-0.000206019
-0.0038707
-0.000363164
-0.00436196
-0.000541735
-0.0046357
-0.000733803
-0.00485429
-0.000937772
-0.00508465
-0.00115388
-0.00534279
-0.00137962
-0.00563798
-0.00597694
-0.00164944
-2.27628e-05
-0.00125943
-0.000104191
-0.00283537
-0.000237342
-0.00373755
-0.000405264
-0.00419404
-0.000593362
-0.00444761
-0.000794512
-0.00465314
-0.00100728
-0.00487189
-0.00123133
-0.00511874
-0.00146857
-0.00540074
-0.00570976
-0.00173575
-2.94945e-05
-0.00122994
-0.000122427
-0.00274244
-0.000267201
-0.00359277
-0.000445274
-0.00401597
-0.000642399
-0.00425048
-0.0008522
-0.00444333
-0.00107358
-0.00465051
-0.00130701
-0.00488531
-0.00155581
-0.00515194
-0.00544024
-0.00182533
-3.60059e-05
-0.00119393
-0.000139865
-0.00263858
-0.000295554
-0.00343708
-0.000483155
-0.00382837
-0.000688798
-0.00404484
-0.000906774
-0.00422536
-0.00113633
-0.00442096
-0.00137841
-0.00464322
-0.00163598
-0.00489437
-0.00516528
-0.00191094
-4.22647e-05
-0.00115167
-0.000156454
-0.00252439
-0.000322361
-0.00327118
-0.000518882
-0.00363185
-0.000732542
-0.00383118
-0.000958259
-0.00399964
-0.00119564
-0.00418358
-0.00144593
-0.00439294
-0.00171148
-0.00462882
-0.00488369
-0.00199307
-4.82426e-05
-0.00110343
-0.00017215
-0.00240048
-0.000347591
-0.00309574
-0.000552431
-0.00342701
-0.00077361
-0.00361
-0.00100662
-0.00376663
-0.0012514
-0.0039388
-0.00150931
-0.00413502
-0.00178233
-0.0043558
-0.004595
-0.00207102
-5.39148e-05
-0.00104951
-0.000186918
-0.00226748
-0.000371217
-0.00291144
-0.000583789
-0.00321443
-0.000811988
-0.0033818
-0.00105185
-0.00352677
-0.00130358
-0.00368707
-0.00156862
-0.00386999
-0.00184872
-0.00407569
-0.00429919
-0.00214453
-5.92591e-05
-0.000990253
-0.000200726
-0.00212601
-0.000393217
-0.00271894
-0.000612941
-0.00299471
-0.000847666
-0.00314707
-0.00109392
-0.00328051
-0.00135215
-0.00342884
-0.00162382
-0.00359831
-0.00191064
-0.00378887
-0.00399647
-0.00221336
-6.42565e-05
-0.000925996
-0.000213549
-0.00197672
-0.000413575
-0.00251892
-0.00063988
-0.00276841
-0.000880635
-0.00290632
-0.00113282
-0.00302833
-0.00139706
-0.00316459
-0.00167491
-0.00332046
-0.00196803
-0.00349576
-0.00368718
-0.00227733
-6.88905e-05
-0.000857105
-0.000225368
-0.00182024
-0.000432279
-0.00231201
-0.0006646
-0.00253609
-0.000910888
-0.00266003
-0.00116852
-0.0027707
-0.00143831
-0.0028948
-0.00172186
-0.00303692
-0.00202084
-0.00319678
-0.00337174
-0.00233627
-7.31469e-05
-0.000783959
-0.000236166
-0.00165722
-0.00044932
-0.00209885
-0.000687099
-0.00229831
-0.000938421
-0.00240871
-0.00120102
-0.0025081
-0.00147587
-0.00261995
-0.00176463
-0.00274816
-0.00206898
-0.00289243
-0.00305065
-0.00239007
-7.70138e-05
-0.000706945
-0.00024593
-0.00148831
-0.000464692
-0.00188009
-0.000707375
-0.00205562
-0.000963234
-0.00215285
-0.00123032
-0.00224102
-0.00150973
-0.00234053
-0.00180318
-0.00245471
-0.00211239
-0.00258322
-0.00272442
-0.00243862
-8.0481e-05
-0.000626464
-0.000254649
-0.00131414
-0.00047839
-0.00165635
-0.000725431
-0.00180858
-0.000985327
-0.00189295
-0.0012564
-0.00196995
-0.00153987
-0.00205706
-0.00183749
-0.00215709
-0.00215103
-0.00226968
-0.00239362
-0.00248183
-8.354e-05
-0.000542924
-0.000262314
-0.00113537
-0.000490414
-0.00142825
-0.00074127
-0.00155773
-0.00100471
-0.00162952
-0.00127927
-0.00169538
-0.00156629
-0.00177005
-0.00186755
-0.00185583
-0.00218485
-0.00195237
-0.00205883
-0.00251964
-8.61835e-05
-0.00045674
-0.000268919
-0.000952631
-0.00050076
-0.00119641
-0.000754896
-0.00130359
-0.00102138
-0.00136303
-0.00129895
-0.00141781
-0.001589
-0.00148001
-0.00189336
-0.00155147
-0.00221385
-0.00163189
-0.00172067
-0.00255201
-8.8405e-05
-0.000368335
-0.000274457
-0.000766579
-0.000509428
-0.000961438
-0.000766312
-0.00104671
-0.00103536
-0.00109399
-0.00131545
-0.00113771
-0.00160803
-0.00118743
-0.00191494
-0.00124455
-0.00223803
-0.0013088
-0.00137977
-0.00257893
-9.01988e-05
-0.000278136
-0.000278921
-0.000577857
-0.000516413
-0.000723946
-0.000775518
-0.000787601
-0.00104664
-0.000822866
-0.00132879
-0.000855568
-0.00162341
-0.000892804
-0.00193237
-0.000935595
-0.00225748
-0.000983689
-0.0010368
-0.00260045
-9.15596e-05
-0.000186577
-0.000282304
-0.000387112
-0.000521709
-0.000484541
-0.000782509
-0.0005268
-0.00105523
-0.000550144
-0.00133897
-0.000571831
-0.00163519
-0.000596582
-0.00194572
-0.000625064
-0.00227233
-0.00065708
-0.000692395
-0.00261673
-9.24824e-05
-9.40943e-05
-0.000284598
-0.000194996
-0.000525306
-0.000243833
-0.000787273
-0.000264834
-0.00106111
-0.000276303
-0.00134599
-0.000286959
-0.00164338
-0.000299191
-0.00195509
-0.000313349
-0.00228282
-0.000329358
-0.000347016
-0.00262819
-9.29627e-05
-1.13161e-06
-0.000285795
-2.16436e-06
-0.00052719
-2.43742e-06
-0.000789787
-2.23693e-06
-0.00106425
-1.83783e-06
-0.00134979
-1.42166e-06
-0.00164791
-1.06654e-06
-0.00196046
-8.02192e-07
-0.00228917
-6.46841e-07
-6.31513e-07
-0.00263556
-9.29967e-05
9.1865e-05
-0.000285885
0.000190724
-0.000527347
0.000239025
-0.000790025
0.000260441
-0.0010646
0.000272734
-0.00135028
0.000284262
-0.00164862
0.00029727
-0.00196149
0.000312072
-0.00229073
0.000328594
0.000346775
-0.00263814
-9.25817e-05
0.000184447
-0.000284862
0.000383004
-0.000525763
0.000479926
-0.000787962
0.000522639
-0.0010621
0.00054687
-0.00134736
0.000569525
-0.00164528
0.000595183
-0.0019577
0.000624497
-0.00228641
0.000657303
0.000693402
-0.00263304
-9.1717e-05
0.000276164
-0.000282722
0.000574009
-0.000522431
0.000719635
-0.000783585
0.000783793
-0.00105674
0.000820025
-0.00134101
0.000853797
-0.00163788
0.000892056
-0.00194918
0.000935793
-0.00227663
0.000984749
0.0010386
-0.00262182
-9.04034e-05
0.000366567
-0.000279465
0.000763071
-0.000517347
0.000957517
-0.00077689
0.00104334
-0.00104852
0.00109166
-0.00133125
0.00113652
-0.00162651
0.00118732
-0.00193609
0.00124538
-0.00226173
0.00131039
0.00138188
-0.00260502
-8.86439e-05
0.000455211
-0.000275094
0.000949521
-0.000510514
0.00119294
-0.000767882
0.0013007
-0.00103745
0.00136123
-0.0013181
0.00141717
-0.00161121
0.00148042
-0.00191855
0.00155272
-0.00224188
0.00163371
0.00172276
-0.00258275
-8.64432e-05
0.000541654
-0.000269614
0.00113269
-0.000501937
0.00142526
-0.000756571
0.00155534
-0.00102356
0.00162822
-0.00130162
0.00169523
-0.00159205
0.00177086
-0.00189664
0.00185731
-0.00221714
0.00195421
0.0020607
-0.00255508
-8.38078e-05
0.000625462
-0.000263034
0.00131192
-0.000491627
0.00165385
-0.00074297
0.00180668
-0.00100687
0.00189211
-0.00128182
0.00197018
-0.00156909
0.00205813
-0.00187042
0.00215864
-0.00218758
0.00227137
0.00239517
-0.00252205
-8.07455e-05
0.000706208
-0.000255366
0.00148654
-0.000479593
0.00187808
-0.000727091
0.00205418
-0.000987384
0.00215241
-0.00125875
0.00224155
-0.00154235
0.00234173
-0.00183992
0.00245621
-0.00215324
0.00258468
0.00272563
-0.0024837
-7.72658e-05
0.000783473
-0.00024662
0.00165589
-0.000465846
0.00209731
-0.000708947
0.00229728
-0.000965138
0.0024086
-0.00123242
0.00250883
-0.00151188
0.00262119
-0.0018052
0.00274953
-0.00211415
0.00289363
0.00305154
-0.00244006
-7.33794e-05
0.000856853
-0.000236812
0.00181932
-0.000450399
0.00231089
-0.000688549
0.00253543
-0.000940141
0.00266019
-0.00120287
0.00277157
-0.0014777
0.00289601
-0.00176628
0.00303811
-0.00207037
0.00319772
0.00337235
-0.00239118
-6.90987e-05
0.000925952
-0.000225956
0.00197618
-0.000433263
0.0025182
-0.00066591
0.00276808
-0.000912409
0.00290669
-0.00117011
0.00302927
-0.00143983
0.00316573
-0.00172319
0.00332147
-0.00202193
0.00349646
0.00368756
-0.00233714
-6.44377e-05
0.000990389
-0.000214072
0.00212582
-0.000414454
0.00271858
-0.000641039
0.00299466
-0.000881956
0.00314761
-0.00113416
0.00328148
-0.00139831
0.00342988
-0.00167597
0.00359913
-0.00196888
0.00378937
0.00399669
-0.00227801
-5.94122e-05
0.0010498
-0.00020118
0.00226758
-0.000393985
0.00291139
-0.000613947
0.00321462
-0.000848793
0.00338245
-0.00109504
0.00352772
-0.00135315
0.00368799
-0.00162465
0.00387063
-0.00191129
0.00407601
0.00429931
-0.00221391
-5.40401e-05
0.00110384
-0.000187303
0.00240085
-0.000371876
0.00309596
-0.000584647
0.0034274
-0.000812933
0.00361074
-0.00105277
0.00376756
-0.00130438
0.0039396
-0.00156925
0.0041355
-0.00184922
0.00435598
0.00459508
-0.00214499
-4.83415e-05
0.00115218
-0.000172469
0.00252497
-0.000348144
0.00327163
-0.00055315
0.0036324
-0.000774387
0.00383198
-0.00100736
0.00400053
-0.00125202
0.00418426
-0.00150978
0.00439327
-0.00178269
0.00462889
0.0048838
-0.00207141
-4.23391e-05
0.00119452
-0.00015671
0.00263935
-0.000322816
0.00343774
-0.000519471
0.00382906
-0.000733169
0.00404567
-0.000958832
0.00422619
-0.0011961
0.00442153
-0.00144626
0.00464343
-0.00171172
0.00489435
0.00516548
-0.0019934
-3.60585e-05
0.00123058
-0.000140063
0.00274335
-0.000295917
0.00359359
-0.000483628
0.00401677
-0.000689293
0.00425134
-0.000907209
0.0044441
-0.00113666
0.00465098
-0.00137864
0.00488541
-0.00163611
0.00515183
0.00544059
-0.00191122
-2.95279e-05
0.00126011
-0.000122574
0.0028364
-0.000267483
0.0037385
-0.000445644
0.00419493
-0.000642778
0.00444847
-0.000852517
0.00465384
-0.0010738
0.00487226
-0.00130713
0.00511874
-0.00155582
0.00540052
0.00571025
-0.00182548
-2.27798e-05
0.00128289
-0.000104293
0.00291791
-0.000237552
0.00387176
-0.000405544
0.00436292
-0.000593642
0.00463657
-0.000794732
0.00485493
-0.00100741
0.00508493
-0.0012314
0.00534273
-0.00146863
0.00563775
0.00597737
-0.00173575
-1.58542e-05
0.00129874
-8.5279e-05
0.00298733
-0.000206167
0.00399265
-0.000363367
0.00452012
-0.000541934
0.00481514
-0.000733944
0.00504694
-0.000937819
0.00528881
-0.00115383
0.00555874
-0.0013795
0.00586342
0.00624644
-0.00164856
-8.81809e-06
0.00130756
-6.5584e-05
0.0030441
-0.000173377
0.00410044
-0.000319156
0.0046659
-0.000487688
0.00498367
-0.000670157
0.00522941
-0.00086436
0.00548301
-0.0010714
0.00576578
-0.00129199
0.00608401
0.00646399
-0.00150954
-1.92543e-06
0.00130949
-4.52176e-05
0.00308739
-0.000139242
0.00419447
-0.000272967
0.00479962
-0.000430937
0.00514164
-0.000603439
0.00540192
-0.000787367
0.00566694
-0.000983302
0.00596172
-0.0011911
0.0062918
0.00668257
-0.00140968
5.66521e-06
0.00130382
-2.40242e-05
0.00311708
-0.000103847
0.00427429
-0.000224878
0.00492065
-0.000371748
0.00528851
-0.000533927
0.00556409
-0.000707406
0.00584042
-0.000892474
0.00614678
-0.00109067
0.00648999
0.00689151
-0.00129961
1.30334e-05
0.00129079
-4.48094e-07
0.00313056
-6.73606e-05
0.0043412
-0.000174945
0.00502824
-0.000310207
0.00542377
-0.00046175
0.00571564
-0.000624722
0.00600339
-0.000799077
0.00632114
-0.000986476
0.00667739
0.00708912
-0.00118408
1.97813e-05
0.00127101
1.87126e-05
0.00313163
-3.0047e-05
0.00438996
-0.000123271
0.00512146
-0.000246431
0.00554693
-0.000386973
0.00585618
-0.000539249
0.00615567
-0.00070273
0.00648462
-0.000878862
0.00685353
0.00727521
-0.00106495
2.63973e-05
0.00124461
3.98886e-05
0.00311814
8.95256e-06
0.0044209
-7.01346e-05
0.00520055
-0.000180516
0.00565731
-0.000309638
0.0059853
-0.000450939
0.00629697
-0.000603286
0.00663697
-0.000767893
0.00701813
0.00744996
-0.000942647
3.29366e-05
0.00121167
6.11566e-05
0.00308992
4.65746e-05
0.00443548
-1.55882e-05
0.00526271
-0.000112526
0.00575425
-0.000229806
0.00610258
-0.000359829
0.00642699
-0.00050078
0.00677792
-0.000653532
0.00717088
0.00761288
-0.000816447
3.91962e-05
0.00117248
8.2306e-05
0.00304681
8.56229e-05
0.00443216
4.00334e-05
0.0053083
-4.26437e-05
0.00583693
-0.000147567
0.0062075
-0.000265991
0.00654541
-0.000395279
0.00690721
-0.000535893
0.0073115
0.00776325
-0.000686265
4.50808e-05
0.0011274
0.000103151
0.00298874
0.000124973
0.00441034
9.68638e-05
0.00533641
2.91083e-05
0.00590468
-6.30418e-05
0.00629965
-0.000169516
0.00665189
-0.000286848
0.00702454
-0.000415131
0.00743978
0.00790059
-0.000552469
5.05076e-05
0.00107689
0.000123422
0.00291583
0.000164289
0.00436948
0.000154624
0.00534607
0.000102576
0.00595673
2.36545e-05
0.00637858
-7.05713e-05
0.00674611
-0.000175577
0.00712954
-0.000291381
0.00755559
0.00802462
-0.000415417
5.53881e-05
0.0010215
0.000142843
0.00282837
0.000203247
0.00430907
0.000212941
0.00533638
0.00017753
0.00599214
0.000112714
0.00644339
3.07862e-05
0.00682804
-6.1811e-05
0.00722214
-0.000164611
0.00765839
0.00813545
-0.000275439
5.96392e-05
0.00096186
0.000161142
0.00272687
0.000241461
0.00422875
0.00027146
0.00530638
0.00025367
0.00600993
0.000203586
0.00649347
0.000134919
0.00689671
5.47315e-05
0.00730233
-3.37184e-05
0.00774684
0.00823518
-0.000133445
6.31866e-05
0.000898674
0.000178036
0.00261202
0.000278497
0.00412829
0.000329754
0.00525512
0.00033067
0.00600902
0.000296129
0.00652802
0.000240991
0.00695185
0.000173877
0.00736944
9.71362e-05
0.00782358
0.00832517
7.14683e-06
6.59674e-05
0.000832706
0.000193234
0.00248475
0.000313872
0.00400765
0.000387315
0.00518168
0.00040812
0.00598821
0.000390058
0.00654608
0.000348992
0.00699291
0.000294995
0.00742344
0.000232214
0.00788636
0.00839494
0.00016244
6.79315e-05
0.000764775
0.000206425
0.00234626
0.000347053
0.00386703
0.000443551
0.00508518
0.000485522
0.00594624
0.000485027
0.00654657
0.00045874
0.0070192
0.000418377
0.0074638
0.000369636
0.0079351
0.00845032
0.000314254
6.90477e-05
0.000695727
0.000217328
0.00219798
0.00037747
0.00370688
0.000497779
0.00496487
0.000562273
0.00588175
0.000580598
0.00652825
0.000569913
0.00702988
0.000543579
0.00749014
0.000508602
0.00797007
0.0084915
0.000467423
6.93043e-05
0.000626423
0.000225688
0.0020416
0.000404514
0.00352806
0.00054922
0.00482017
0.000637645
0.00579332
0.000676216
0.00648968
0.000682091
0.00702401
0.000670211
0.00750202
0.000649068
0.00799122
0.00851853
0.000622035
6.87099e-05
0.000557713
0.00023129
0.00187902
0.00042756
0.00333179
0.000596996
0.00465073
0.000710775
0.00567954
0.000771198
0.00642925
0.000794802
0.0070004
0.000797963
0.00749886
0.000790885
0.0079983
0.00853149
0.000777933
6.72945e-05
0.000490418
0.000233973
0.00171234
0.000445982
0.00311978
0.000640138
0.00445658
0.000780649
0.00553903
0.000864719
0.00634518
0.000907483
0.00695764
0.00092649
0.00747985
0.000933809
0.00799098
0.00853033
0.000934964
6.51106e-05
0.000425308
0.000233652
0.0015438
0.000459195
0.00289424
0.000677607
0.00423816
0.000846095
0.00537055
0.000955771
0.00623551
0.00101942
0.00689399
0.00105535
0.00744393
0.00107754
0.00796878
0.00851493
0.00109294
6.22313e-05
0.000363077
0.00023033
0.0013757
0.00046669
0.00265788
0.000708315
0.00399654
0.000905776
0.00517308
0.00104314
0.00609815
0.00112973
0.0068074
0.00118395
0.0073897
0.00122172
0.00793102
0.00848503
0.00125162
5.87492e-05
0.000304327
0.000224114
0.00121033
0.000468088
0.0024139
0.000731176
0.00373345
0.000958203
0.00494606
0.00112536
0.00593099
0.00123726
0.00669549
0.00131155
0.00731541
0.00136586
0.0078767
0.00844019
0.0014107
5.47718e-05
0.000249556
0.000215212
0.00104989
0.000463193