/*--------------------------------*- C++ -*----------------------------------*\
  =========                 |
  \\      /  F ield         | OpenFOAM: The Open Source CFD Toolbox
   \\    /   O peration     | Website:  https://openfoam.org
    \\  /    A nd           | Version:  7
     \\/     M anipulation  |
\*---------------------------------------------------------------------------*/
FoamFile
{
    version     2.0;
    format      ascii;
    class       volScalarField;
    location    "15";
    object      p;
}
// * * * * * * * * * * * * * * * * * * * * * * * * * * * * * * * * * * * * * //

dimensions      [0 2 -2 0 0 0 0];

internalField   nonuniform List<scalar> 
12772
(
-0.272797
-0.274882
-0.275867
-0.276684
-0.277422
-0.27812
-0.278815
-0.27953
-0.28028
-0.28111
-0.27301
-0.275067
-0.276037
-0.27684
-0.277564
-0.278247
-0.278926
-0.279622
-0.280348
-0.281133
-0.273434
-0.275434
-0.276375
-0.27715
-0.277846
-0.2785
-0.279144
-0.279803
-0.280481
-0.281176
-0.274058
-0.275977
-0.276873
-0.277607
-0.27826
-0.278868
-0.279461
-0.280062
-0.280667
-0.28122
-0.274871
-0.276686
-0.277524
-0.2782
-0.278794
-0.27934
-0.279861
-0.280383
-0.280893
-0.281244
-0.275858
-0.277548
-0.278315
-0.278919
-0.279438
-0.279902
-0.280331
-0.280747
-0.281144
-0.281216
-0.277
-0.278552
-0.279233
-0.27975
-0.280175
-0.28054
-0.280852
-0.281135
-0.281406
-0.281098
-0.278282
-0.279683
-0.280267
-0.280679
-0.280993
-0.281237
-0.281409
-0.281526
-0.281672
-0.280832
-0.279687
-0.28093
-0.281403
-0.281695
-0.281878
-0.281981
-0.281989
-0.281905
-0.281946
-0.280326
-0.281203
-0.282282
-0.282633
-0.282787
-0.282819
-0.282761
-0.282583
-0.282257
-0.282239
-0.279511
-0.28282
-0.283732
-0.283947
-0.283946
-0.283807
-0.283569
-0.283187
-0.282572
-0.282501
-0.278762
-0.284532
-0.285276
-0.285341
-0.285165
-0.284837
-0.284401
-0.283801
-0.282884
-0.282583
-0.277862
-0.28634
-0.286913
-0.286812
-0.286443
-0.285905
-0.285254
-0.284422
-0.283241
-0.282652
-0.27665
-0.288251
-0.288647
-0.288364
-0.28778
-0.287011
-0.286129
-0.285052
-0.283608
-0.282772
-0.275173
-0.290278
-0.29049
-0.290004
-0.289179
-0.288156
-0.287028
-0.285698
-0.284001
-0.282919
-0.273548
-0.29244
-0.292455
-0.291744
-0.290646
-0.289348
-0.287953
-0.286358
-0.28445
-0.283018
-0.271961
-0.294766
-0.294565
-0.293593
-0.292201
-0.290594
-0.28891
-0.287028
-0.284988
-0.282933
-0.270598
-0.297289
-0.296843
-0.295584
-0.29386
-0.291912
-0.289912
-0.287709
-0.285646
-0.282449
-0.269569
-0.300051
-0.29932
-0.297745
-0.295649
-0.293327
-0.29098
-0.28842
-0.286452
-0.281469
-0.269658
-0.303105
-0.302037
-0.300106
-0.297601
-0.294871
-0.292149
-0.289197
-0.287339
-0.280382
-0.27412
-0.306502
-0.305036
-0.302707
-0.299758
-0.296586
-0.293457
-0.290085
-0.288096
-0.279851
-0.285081
-0.310292
-0.308368
-0.305594
-0.302166
-0.298522
-0.294951
-0.291134
-0.288613
-0.280107
-0.283999
-0.314538
-0.312076
-0.308814
-0.304875
-0.300732
-0.296677
-0.292375
-0.289007
-0.280559
-0.281098
-0.319296
-0.31621
-0.312417
-0.307936
-0.303266
-0.298676
-0.29381
-0.289433
-0.280841
-0.278279
-0.324622
-0.320817
-0.31645
-0.3114
-0.306172
-0.300977
-0.295428
-0.28992
-0.280856
-0.275415
-0.330561
-0.325942
-0.320962
-0.315313
-0.309482
-0.303595
-0.297214
-0.290436
-0.280534
-0.272602
-0.337156
-0.331625
-0.325998
-0.319716
-0.313218
-0.306525
-0.299135
-0.290921
-0.279858
-0.26976
-0.344434
-0.3379
-0.331594
-0.32464
-0.317387
-0.309742
-0.30113
-0.29129
-0.27882
-0.266818
-0.352414
-0.344793
-0.33778
-0.330099
-0.321974
-0.313195
-0.303113
-0.291453
-0.277413
-0.263703
-0.361094
-0.352316
-0.344569
-0.336089
-0.326943
-0.316801
-0.304974
-0.291324
-0.275626
-0.260355
-0.370457
-0.360466
-0.351957
-0.342577
-0.332226
-0.320443
-0.306594
-0.290824
-0.273442
-0.256717
-0.380456
-0.369216
-0.359908
-0.349504
-0.337715
-0.323972
-0.307853
-0.289884
-0.270834
-0.252741
-0.39102
-0.378514
-0.368358
-0.356772
-0.343261
-0.327226
-0.308634
-0.288439
-0.267769
-0.248377
-0.402043
-0.388274
-0.377203
-0.364243
-0.348675
-0.330033
-0.308829
-0.286425
-0.264205
-0.243578
-0.413383
-0.398373
-0.386301
-0.37173
-0.353744
-0.332225
-0.308335
-0.283782
-0.260096
-0.238295
-0.424862
-0.408649
-0.395468
-0.379005
-0.358236
-0.333638
-0.307052
-0.280444
-0.255387
-0.232478
-0.436263
-0.4189
-0.404478
-0.385804
-0.36192
-0.334119
-0.304888
-0.276346
-0.250025
-0.226081
-0.447331
-0.428884
-0.413062
-0.391838
-0.36457
-0.333524
-0.301749
-0.271421
-0.243949
-0.219057
-0.45778
-0.438325
-0.42092
-0.396812
-0.36597
-0.331717
-0.29755
-0.265601
-0.237102
-0.211366
-0.467296
-0.446917
-0.427724
-0.400431
-0.365921
-0.328576
-0.292204
-0.258818
-0.229427
-0.20297
-0.475545
-0.454332
-0.433135
-0.402417
-0.364241
-0.323986
-0.285634
-0.251009
-0.220872
-0.193831
-0.482183
-0.460229
-0.436813
-0.402513
-0.36077
-0.317846
-0.277765
-0.242113
-0.21139
-0.183922
-0.486863
-0.464262
-0.438436
-0.400488
-0.35537
-0.310068
-0.268529
-0.232075
-0.200942
-0.173227
-0.48925
-0.466094
-0.437704
-0.396145
-0.347923
-0.300575
-0.257867
-0.220843
-0.189496
-0.16173
-0.489025
-0.465404
-0.434357
-0.389322
-0.338338
-0.289307
-0.245731
-0.208372
-0.177007
-0.149364
-0.485902
-0.461901
-0.428176
-0.379895
-0.326549
-0.276223
-0.232091
-0.194637
-0.16342
-0.135946
-0.479625
-0.455332
-0.418991
-0.367777
-0.312516
-0.2613
-0.216932
-0.179633
-0.148707
-0.121243
-0.469989
-0.445497
-0.406677
-0.352921
-0.296224
-0.244532
-0.200251
-0.163374
-0.132933
-0.105343
-0.456833
-0.432246
-0.391158
-0.335314
-0.277679
-0.225922
-0.182048
-0.145879
-0.11614
-0.08907
-0.440051
-0.415487
-0.372405
-0.314978
-0.256915
-0.205494
-0.162374
-0.127249
-0.0982215
-0.0722794
-0.419595
-0.395183
-0.350438
-0.291976
-0.23399
-0.183313
-0.141368
-0.107423
-0.0793362
-0.0548021
-0.395468
-0.371354
-0.325327
-0.266406
-0.208995
-0.159512
-0.118995
-0.0864759
-0.0595837
-0.0366307
-0.367732
-0.344085
-0.297219
-0.238363
-0.182019
-0.134135
-0.0953459
-0.0644924
-0.0390362
-0.0178469
-0.336499
-0.313532
-0.266342
-0.207884
-0.15318
-0.107281
-0.0705215
-0.041563
-0.0177662
0.00144255
-0.301944
-0.279914
-0.232805
-0.175117
-0.122621
-0.0790832
-0.0446373
-0.0177841
0.0041519
0.0211548
-0.264294
-0.243487
-0.196219
-0.140673
-0.0905595
-0.0496894
-0.0178195
0.00674284
0.0266327
0.0411865
-0.223764
-0.204436
-0.157288
-0.10448
-0.0571892
-0.0192622
0.00980752
0.0319227
0.049523
0.0611497
-0.180583
-0.162568
-0.116933
-0.0667983
-0.0226932
0.0120369
0.0381413
0.057685
0.072542
0.0801872
-0.135154
-0.118651
-0.0750871
-0.0279068
0.0127221
0.0440467
0.0670906
0.0839593
0.095423
0.0978411
-0.0879174
-0.0729921
-0.0319418
0.0119214
0.0488287
0.0765891
0.0965076
0.110548
0.118208
0.116162
-0.0391697
-0.0260273
0.0121971
0.05241
0.0853883
0.10946
0.126144
0.137059
0.140906
0.139985
0.0106794
0.021843
0.0569822
0.0932724
0.122157
0.142437
0.155734
0.16332
0.164145
0.163923
0.0611995
0.0702238
0.102054
0.134213
0.158884
0.175295
0.185107
0.189397
0.187635
0.186541
0.111957
0.118715
0.147053
0.174931
0.195313
0.207809
0.214089
0.215158
0.210952
0.20822
0.162515
0.166912
0.191619
0.215126
0.231188
0.23976
0.242511
0.24043
0.233773
0.228973
0.212438
0.214414
0.235398
0.2545
0.266257
0.270934
0.270197
0.265038
0.25592
0.248854
0.261297
0.260821
0.278046
0.292759
0.300272
0.301122
0.296969
0.28881
0.277248
0.267833
0.308672
0.305748
0.319225
0.329621
0.332991
0.330118
0.322651
0.31159
0.297636
0.285855
0.354157
0.348819
0.358612
0.364811
0.364183
0.357727
0.347074
0.333232
0.316967
0.30285
0.397361
0.389678
0.395899
0.398069
0.393626
0.383758
0.370078
0.353597
0.33513
0.31874
0.437915
0.427985
0.430794
0.429149
0.421112
0.408035
0.39151
0.372556
0.352018
0.333448
0.475474
0.463425
0.463027
0.45782
0.446444
0.43039
0.411228
0.389988
0.367529
0.346903
0.509719
0.495707
0.492348
0.483873
0.469443
0.45067
0.429103
0.40578
0.381568
0.359034
0.540358
0.524566
0.518529
0.507113
0.489945
0.468737
0.445015
0.419832
0.394048
0.369782
0.567133
0.549767
0.541367
0.527371
0.507806
0.484465
0.45886
0.432053
0.404893
0.379092
0.589815
0.571102
0.560688
0.544497
0.522898
0.497749
0.470546
0.442364
0.414037
0.386918
0.608212
0.588398
0.57634
0.558364
0.535114
0.508497
0.479996
0.450699
0.421421
0.393222
0.622168
0.601512
0.588203
0.568871
0.544367
0.516636
0.48715
0.457005
0.427003
0.39797
0.631562
0.610337
0.596183
0.575937
0.550589
0.522108
0.491958
0.461242
0.430752
0.401156
0.636314
0.614798
0.600217
0.579509
0.553734
0.524873
0.494388
0.463384
0.432654
0.402793
0.63638
0.614857
0.600271
0.579556
0.553775
0.524908
0.494417
0.463409
0.432677
0.402827
0.631758
0.610512
0.596343
0.576077
0.550709
0.522208
0.492039
0.461305
0.430801
0.401196
0.622485
0.601796
0.58846
0.569095
0.544556
0.516791
0.48727
0.457092
0.42706
0.398
0.608636
0.588778
0.576682
0.55866
0.53536
0.508694
0.480143
0.450798
0.421479
0.39324
0.59033
0.571564
0.561101
0.54485
0.523187
0.497974
0.470707
0.442467
0.414088
0.386926
0.567718
0.550292
0.541835
0.527766
0.508124
0.484706
0.459027
0.432154
0.404938
0.37909
0.540994
0.525138
0.519035
0.507536
0.49028
0.468985
0.445183
0.41993
0.394087
0.369773
0.510385
0.496307
0.492877
0.484311
0.469785
0.45092
0.429268
0.405873
0.381602
0.359021
0.476151
0.464037
0.463566
0.458263
0.446786
0.430636
0.411389
0.390077
0.367561
0.346887
0.438585
0.428593
0.43133
0.429587
0.421447
0.408275
0.391665
0.372643
0.352051
0.333433
0.398009
0.39027
0.396421
0.398495
0.393951
0.38399
0.370229
0.353683
0.335164
0.318726
0.354771
0.349384
0.359112
0.36522
0.364495
0.357949
0.347221
0.333318
0.317004
0.302838
0.309244
0.306277
0.319697
0.330008
0.333287
0.330332
0.322794
0.311678
0.297676
0.285845
0.261818
0.261309
0.278484
0.293121
0.300551
0.301326
0.297109
0.2889
0.277292
0.267823
0.212904
0.214854
0.2358
0.254835
0.266519
0.271129
0.270334
0.26513
0.255969
0.248844
0.162923
0.167304
0.191981
0.215434
0.231433
0.239946
0.242646
0.240526
0.233829
0.228962
0.112306
0.119056
0.147375
0.17521
0.195539
0.207986
0.214221
0.215257
0.21102
0.208212
0.0614917
0.0705145
0.102337
0.134464
0.159093
0.175464
0.185237
0.189499
0.18772
0.186549
0.010916
0.0220844
0.0572256
0.0934953
0.122349
0.142597
0.155862
0.163425
0.164253
0.163978
-0.0389858
-0.0258331
0.0124025
0.0526058
0.0855638
0.109612
0.126272
0.137165
0.141036
0.140158
-0.0877828
-0.0728429
-0.0317727
0.0120909
0.0489875
0.076734
0.0966362
0.11066
0.118355
0.116479
-0.135064
-0.118543
-0.0749522
-0.0277627
0.0128643
0.0441829
0.067219
0.0840769
0.0955654
0.0981187
-0.180535
-0.162499
-0.11683
-0.0666787
-0.0225678
0.0121627
0.0382652
0.0578016
0.0726659
0.0803798
-0.223753
-0.204404
-0.157215
-0.104385
-0.0570806
-0.0191483
0.0099226
0.032032
0.0496298
0.061289
-0.264315
-0.243485
-0.196177
-0.1406
-0.0904677
-0.0495884
-0.0177152
0.0068428
0.0267274
0.0412996
-0.301993
-0.279939
-0.232789
-0.175066
-0.122545
-0.0789953
-0.0445442
-0.0176936
0.00423706
0.0212511
-0.336573
-0.313582
-0.266349
-0.207852
-0.15312
-0.107206
-0.0704396
-0.0414819
-0.0176898
0.0015248
-0.367827
-0.344156
-0.297248
-0.238349
-0.181975
-0.134072
-0.0952748
-0.0644205
-0.0389683
-0.0177759
-0.395581
-0.371443
-0.325373
-0.266408
-0.208965
-0.159461
-0.118934
-0.086413
-0.0595234
-0.0365682
-0.419721
-0.395286
-0.350501
-0.291994
-0.233974
-0.183274
-0.141318
-0.107368
-0.0792828
-0.0547462
-0.440189
-0.415602
-0.372482
-0.31501
-0.256911
-0.205466
-0.162333
-0.127202
-0.0981743
-0.072229
-0.456978
-0.43237
-0.391246
-0.335358
-0.277686
-0.225904
-0.182016
-0.14584
-0.116099
-0.0890245
-0.47014
-0.445628
-0.406775
-0.352976
-0.296241
-0.244523
-0.200226
-0.163341
-0.132897
-0.105302
-0.47978
-0.455468
-0.419095
-0.367841
-0.312543
-0.2613
-0.216916
-0.179607
-0.148675
-0.121207
-0.486057
-0.462039
-0.428286
-0.379966
-0.326584
-0.27623
-0.232081
-0.194616
-0.163393
-0.135914
-0.48918
-0.465542
-0.43447
-0.389399
-0.33838
-0.289321
-0.245728
-0.208357
-0.176985
-0.149336
-0.489401
-0.466231
-0.437818
-0.396226
-0.34797
-0.300595
-0.257869
-0.220832
-0.189478
-0.161706
-0.48701
-0.464397
-0.43855
-0.400572
-0.355422
-0.310094
-0.268536
-0.232069
-0.200928
-0.173206
-0.482325
-0.460359
-0.436926
-0.402599
-0.360827
-0.317878
-0.277777
-0.242112
-0.211379
-0.183905
-0.475682
-0.454458
-0.433246
-0.402505
-0.364301
-0.324021
-0.28565
-0.251012
-0.220865
-0.193817
-0.467426
-0.447037
-0.427832
-0.400518
-0.365983
-0.328615
-0.292224
-0.258825
-0.229424
-0.202959
-0.457904
-0.438439
-0.421023
-0.396898
-0.366034
-0.331759
-0.297573
-0.265611
-0.237102
-0.211358
-0.447448
-0.428992
-0.413161
-0.391922
-0.364635
-0.333568
-0.301776
-0.271434
-0.243952
-0.219053
-0.436372
-0.419002
-0.404571
-0.385885
-0.361985
-0.334166
-0.304918
-0.276363
-0.250031
-0.226079
-0.424965
-0.408745
-0.395557
-0.379083
-0.3583
-0.333686
-0.307085
-0.280463
-0.255397
-0.232479
-0.413479
-0.398463
-0.386385
-0.371805
-0.353807
-0.332274
-0.30837
-0.283804
-0.260108
-0.238299
-0.402133
-0.388358
-0.377282
-0.364314
-0.348738
-0.330083
-0.308867
-0.286451
-0.26422
-0.243585
-0.391104
-0.378593
-0.368432
-0.356841
-0.343321
-0.327276
-0.308673
-0.288467
-0.267787
-0.248387
-0.380535
-0.369291
-0.359979
-0.34957
-0.337774
-0.324023
-0.307893
-0.289915
-0.270855
-0.252754
-0.370531
-0.360536
-0.352023
-0.34264
-0.332283
-0.320493
-0.306636
-0.290857
-0.273466
-0.256733
-0.361164
-0.352383
-0.344633
-0.336148
-0.326998
-0.316851
-0.305017
-0.291359
-0.275653
-0.260373
-0.352479
-0.344856
-0.33784
-0.330156
-0.322027
-0.313244
-0.303157
-0.29149
-0.277443
-0.263725
-0.344496
-0.33796
-0.331651
-0.324695
-0.317439
-0.309791
-0.301175
-0.291329
-0.278853
-0.266843
-0.337215
-0.331682
-0.326053
-0.319769
-0.313269
-0.306574
-0.29918
-0.290962
-0.279894
-0.269788
-0.330618
-0.325997
-0.321016
-0.315364
-0.309531
-0.303643
-0.29726
-0.29048
-0.280573
-0.272634
-0.324676
-0.32087
-0.316502
-0.311449
-0.30622
-0.301025
-0.295475
-0.289964
-0.280898
-0.275451
-0.319349
-0.316261
-0.312467
-0.307984
-0.303314
-0.298723
-0.293857
-0.28948
-0.280886
-0.278318
-0.314588
-0.312126
-0.308863
-0.304922
-0.300778
-0.296724
-0.292423
-0.289055
-0.280606
-0.281141
-0.310341
-0.308416
-0.305642
-0.302212
-0.298568
-0.294998
-0.291182
-0.288662
-0.280156
-0.284046
-0.30655
-0.305084
-0.302754
-0.299804
-0.296632
-0.293504
-0.290134
-0.288147
-0.279902
-0.285132
-0.303152
-0.302083
-0.300151
-0.297646
-0.294916
-0.292195
-0.289246
-0.287391
-0.280435
-0.274172
-0.300097
-0.299365
-0.297789
-0.295693
-0.293372
-0.291027
-0.288469
-0.286504
-0.281524
-0.269709
-0.297332
-0.296886
-0.295628
-0.293904
-0.291957
-0.289958
-0.287758
-0.285699
-0.282505
-0.26962
-0.294808
-0.294606
-0.293635
-0.292244
-0.290638
-0.288956
-0.287076
-0.285039
-0.282989
-0.270649
-0.292481
-0.292495
-0.291784
-0.290687
-0.28939
-0.287997
-0.286405
-0.284501
-0.283074
-0.272011
-0.290316
-0.290528
-0.290043
-0.289218
-0.288197
-0.287071
-0.285744
-0.28405
-0.282973
-0.273598
-0.288288
-0.288684
-0.288401
-0.287817
-0.28705
-0.28617
-0.285097
-0.283656
-0.282825
-0.275222
-0.286375
-0.286947
-0.286847
-0.286479
-0.285943
-0.285293
-0.284465
-0.283287
-0.282702
-0.276699
-0.284564
-0.285308
-0.285373
-0.285199
-0.284872
-0.284438
-0.283841
-0.282927
-0.282631
-0.277908
-0.282849
-0.283762
-0.283977
-0.283977
-0.28384
-0.283604
-0.283224
-0.282612
-0.282545
-0.278805
-0.28123
-0.282309
-0.28266
-0.282816
-0.282849
-0.282793
-0.282618
-0.282295
-0.282279
-0.279551
-0.279711
-0.280954
-0.281428
-0.281721
-0.281905
-0.28201
-0.28202
-0.281939
-0.281983
-0.280364
-0.278303
-0.279705
-0.280289
-0.280702
-0.281017
-0.281263
-0.281437
-0.281557
-0.281705
-0.280867
-0.277018
-0.27857
-0.279252
-0.27977
-0.280196
-0.280562
-0.280876
-0.281161
-0.281435
-0.281129
-0.275873
-0.277564
-0.278331
-0.278936
-0.279455
-0.279921
-0.280351
-0.28077
-0.281169
-0.281243
-0.274884
-0.276699
-0.277537
-0.278214
-0.278809
-0.279356
-0.279879
-0.280402
-0.280914
-0.281266
-0.274068
-0.275987
-0.276884
-0.277617
-0.278271
-0.27888
-0.279474
-0.280077
-0.280683
-0.281238
-0.273441
-0.275441
-0.276382
-0.277158
-0.277854
-0.278508
-0.279154
-0.279814
-0.280492
-0.281188
-0.273014
-0.275071
-0.276041
-0.276845
-0.277569
-0.278253
-0.278932
-0.279629
-0.280355
-0.281141
-0.272798
-0.274884
-0.275869
-0.276686
-0.277424
-0.278122
-0.278817
-0.279532
-0.280283
-0.281112
-0.282127
-0.283038
-0.284098
-0.285328
-0.286756
-0.288418
-0.29035
-0.29259
-0.295176
-0.298144
-0.301529
-0.305352
-0.309619
-0.314312
-0.319372
-0.324688
-0.33008
-0.335284
-0.339932
-0.343538
-0.345514
-0.345164
-0.341626
-0.334093
-0.321865
-0.304343
-0.281272
-0.252927
-0.219995
-0.184018
-0.146415
-0.109504
-0.07467
-0.0436154
-0.0179511
0.00311617
0.0163965
0.0272563
0.0278027
0.0305156
0.0185849
0.0150772
-0.282202
-0.283091
-0.284141
-0.285363
-0.286785
-0.288443
-0.290371
-0.292609
-0.295194
-0.298164
-0.301553
-0.305383
-0.309662
-0.314371
-0.319453
-0.324797
-0.330225
-0.335471
-0.340167
-0.343828
-0.345862
-0.345574
-0.342098
-0.334625
-0.322447
-0.304963
-0.281908
-0.25356
-0.2206
-0.184583
-0.146925
-0.109956
-0.0750543
-0.0439793
-0.0182546
0.00285597
0.0161716
0.0270622
0.0276383
0.030371
0.0184873
0.0149906
-0.282346
-0.283192
-0.28422
-0.28543
-0.28684
-0.288487
-0.290408
-0.29264
-0.295223
-0.298194
-0.301589
-0.305431
-0.30973
-0.314469
-0.31959
-0.324986
-0.330479
-0.335803
-0.340591
-0.344356
-0.346503
-0.346336
-0.342982
-0.335632
-0.323557
-0.30615
-0.283135
-0.254791
-0.221786
-0.185699
-0.147938
-0.110865
-0.0758455
-0.0446928
-0.0188664
0.00232928
0.0157158
0.0266685
0.0273066
0.0300798
0.0182926
0.0148192
-0.282545
-0.283327
-0.284325
-0.285515
-0.286907
-0.288539
-0.290448
-0.292671
-0.295248
-0.298219
-0.30162
-0.305477
-0.309802
-0.314579
-0.319755
-0.325223
-0.330806
-0.33624
-0.341158
-0.345071
-0.34738
-0.347385
-0.34421
-0.33704
-0.325118
-0.307831
-0.284883
-0.256554
-0.223495
-0.187318
-0.14942
-0.112203
-0.0770269
-0.0457403
-0.0197785
0.00154035
0.0150315
0.026076
0.0268095
0.0296427
0.0180044
0.014566
-0.282778
-0.283479
-0.284437
-0.285602
-0.28697
-0.288582
-0.290474
-0.292683
-0.29525
-0.298218
-0.301623
-0.305496
-0.309849
-0.314671
-0.31991
-0.325464
-0.331156
-0.336726
-0.341803
-0.345902
-0.348415
-0.348638
-0.34569
-0.338751
-0.327031
-0.309907
-0.287057
-0.258764
-0.225651
-0.189376
-0.151319
-0.113935
-0.0785631
-0.0471102
-0.0209796
0.000495652
0.0141224
0.025286
0.0261495
0.0290614
0.0176272
0.0142359
-0.283028
-0.283628
-0.284539
-0.285674
-0.287013
-0.288599
-0.290467
-0.292656
-0.295209
-0.298168
-0.301573
-0.305458
-0.309838
-0.314706
-0.320014
-0.325661
-0.331475
-0.337196
-0.342456
-0.346767
-0.349518
-0.349996
-0.347319
-0.340655
-0.329183
-0.312265
-0.289548
-0.261318
-0.228166
-0.191801
-0.15358
-0.116008
-0.0804298
-0.0487762
-0.0224558
-0.000796244
0.0129942
0.0243013
0.0253308
0.0283384
0.0171669
0.0138347
-0.28328
-0.283752
-0.284612
-0.285714
-0.287017
-0.288571
-0.29041
-0.292573
-0.295104
-0.298047
-0.301446
-0.305336
-0.309739
-0.314649
-0.320024
-0.325766
-0.331706
-0.337588
-0.343043
-0.347585
-0.350597
-0.351354
-0.34896
-0.342633
-0.331454
-0.314786
-0.292242
-0.264112
-0.230952
-0.194516
-0.156132
-0.118371
-0.0825922
-0.0507155
-0.0241906
-0.0023244
0.0116544
0.0231267
0.0243587
0.0274779
0.0166296
0.0133693
-0.283537
-0.283834
-0.284644
-0.285708
-0.28697
-0.288486
-0.290289
-0.292417
-0.294917
-0.297836
-0.30122
-0.305107
-0.309524
-0.314468
-0.319903
-0.325735
-0.331799
-0.337841
-0.343496
-0.348277
-0.351565
-0.352622
-0.350542
-0.344581
-0.333729
-0.317355
-0.295031
-0.267051
-0.23391
-0.197427
-0.158907
-0.120988
-0.0850064
-0.0529018
-0.0261648
-0.00407548
0.0101132
0.0217689
0.0232403
0.026486
0.0160219
0.0128473
-0.283888
-0.283844
-0.284623
-0.285647
-0.286863
-0.288333
-0.290092
-0.292178
-0.294638
-0.297523
-0.30088
-0.304753
-0.309172
-0.314139
-0.319622
-0.325533
-0.331711
-0.337906
-0.343757
-0.348777
-0.352349
-0.353721
-0.352066
-0.346401
-0.335908
-0.319867
-0.29781
-0.270046
-0.236911
-0.200464
-0.161867
-0.123797
-0.0876342
-0.0553052
-0.0283563
-0.0060337
0.00838291
0.0202373
0.0219841
0.0253701
0.0153507
0.0122764
-0.284434
-0.283752
-0.284556
-0.28553
-0.286692
-0.288108
-0.289814
-0.291849
-0.29426
-0.297099
-0.300418
-0.304265
-0.308671
-0.313646
-0.319162
-0.325136
-0.331414
-0.337748
-0.343783
-0.349034
-0.352886
-0.354579
-0.353284
-0.348008
-0.337909
-0.322223
-0.300464
-0.272922
-0.239989
-0.203569
-0.164936
-0.126749
-0.0904365
-0.0578953
-0.0307411
-0.00818099
0.0064785
0.0185433
0.0206005
0.0241396
0.0146228
0.0116646
-0.284267
-0.283897
-0.284423
-0.285348
-0.286459
-0.287811
-0.289457
-0.291431
-0.293782
-0.296565
-0.299834
-0.303639
-0.308018
-0.312984
-0.318515
-0.324533
-0.33089
-0.337345
-0.343546
-0.349012
-0.353133
-0.355144
-0.354205
-0.349327
-0.339627
-0.324352
-0.302961
-0.275699
-0.242987
-0.206665
-0.168057
-0.129798
-0.0933744
-0.0606404
-0.0332933
-0.0104972
0.00441692
0.0167008
0.0191012
0.0228052
0.013845
0.0110196
-0.284275
-0.283985
-0.284246
-0.285118
-0.286169
-0.287447
-0.289024
-0.290929
-0.293211
-0.295926
-0.299133
-0.302883
-0.307219
-0.312157
-0.317681
-0.323721
-0.330134
-0.336686
-0.34303
-0.348692
-0.353062
-0.355378
-0.354791
-0.350318
-0.341041
-0.326194
-0.305207
-0.278288
-0.245851
-0.209699
-0.17118
-0.1329
-0.0964094
-0.0635091
-0.0359859
-0.0129606
0.0022168
0.0147254
0.0174991
0.021379
0.0130244
0.0103489
-0.284381
-0.284047
-0.28404
-0.284846
-0.285828
-0.287022
-0.28852
-0.290348
-0.292552
-0.295191
-0.298324
-0.302006
-0.306282
-0.311175
-0.316672
-0.32271
-0.329152
-0.335774
-0.342235
-0.348066
-0.352663
-0.355269
-0.355019
-0.350945
-0.3421
-0.327702
-0.307154
-0.280632
-0.248535
-0.21262
-0.17426
-0.136013
-0.0995052
-0.0664709
-0.038792
-0.0155487
-0.000102235
0.012634
0.0158078
0.0198738
0.0121677
0.00965947
-0.284534
-0.284142
-0.283822
-0.284543
-0.285444
-0.28654
-0.287951
-0.289695
-0.291814
-0.294368
-0.297418
-0.30102
-0.305222
-0.310052
-0.315501
-0.321512
-0.327958
-0.33462
-0.341167
-0.347137
-0.351934
-0.354812
-0.354876
-0.351189
-0.342776
-0.328843
-0.308766
-0.282692
-0.250998
-0.215388
-0.177257
-0.139102
-0.102628
-0.0694963
-0.0416846
-0.0182383
-0.00251975
0.0104444
0.0140417
0.0183026
0.0112819
0.00895769
-0.284733
-0.284287
-0.283601
-0.284215
-0.285017
-0.286002
-0.287318
-0.288973
-0.291002
-0.293467
-0.296426
-0.299939
-0.304054
-0.308803
-0.314183
-0.320145
-0.326566
-0.333238
-0.33984
-0.345916
-0.350878
-0.353966
-0.354353
-0.351039
-0.343053
-0.329596
-0.310018
-0.284436
-0.253205
-0.217967
-0.180134
-0.142131
-0.105743
-0.0725534
-0.0446343
-0.0210038
-0.00501341
0.00817575
0.0122157
0.0166792
0.0103736
0.00824939
-0.28497
-0.284456
-0.28337
-0.283861
-0.284539
-0.285398
-0.286617
-0.288181
-0.29012
-0.292491
-0.295356
-0.298771
-0.302788
-0.307442
-0.312735
-0.318623
-0.324993
-0.331645
-0.338268
-0.344416
-0.349507
-0.352787
-0.353455
-0.350491
-0.342923
-0.329945
-0.310888
-0.285835
-0.255122
-0.220317
-0.182847
-0.145057
-0.108808
-0.0756049
-0.0476077
-0.023817
-0.00755935
0.00584858
0.0103452
0.0150173
0.00944962
0.00753982
-0.285186
-0.284536
-0.283084
-0.283462
-0.283993
-0.284719
-0.285841
-0.287318
-0.289168
-0.291447
-0.294215
-0.297529
-0.30144
-0.305987
-0.311175
-0.316969
-0.323262
-0.329863
-0.336473
-0.342656
-0.347846
-0.351295
-0.352191
-0.349554
-0.342387
-0.329886
-0.311364
-0.286874
-0.256727
-0.222416
-0.185377
-0.147862
-0.111808
-0.0786369
-0.0505922
-0.0266636
-0.010145
0.00347784
0.00844105
0.0133299
0.00851525
0.00683382
-0.285298
-0.284387
-0.282704
-0.283009
-0.283365
-0.283952
-0.284982
-0.286375
-0.288138
-0.290327
-0.292997
-0.296205
-0.300003
-0.30443
-0.309499
-0.315178
-0.321369
-0.327893
-0.334459
-0.340648
-0.345959
-0.349463
-0.350548
-0.348221
-0.341453
-0.329443
-0.31149
-0.287617
-0.258107
-0.224364
-0.187828
-0.150646
-0.114832
-0.0817199
-0.0536409
-0.029574
-0.0127885
0.00106179
0.00650412
0.0116264
0.00757438
0.00613531
-0.286127
-0.283967
-0.282171
-0.282399
-0.282535
-0.282983
-0.283933
-0.285254
-0.286939
-0.28904
-0.291612
-0.294709
-0.298385
-0.30268
-0.30761
-0.313151
-0.319214
-0.325629
-0.332124
-0.338291
-0.343539
-0.34723
-0.348479
-0.346463
-0.340122
-0.32865
-0.311335
-0.288156
-0.259362
-0.226259
-0.190284
-0.153475
-0.11792
-0.0848746
-0.0567557
-0.032545
-0.0154768
-0.00139139
0.0045477
0.00991153
0.00663594
0.00544478
-0.285995
-0.281529
-0.280707
-0.281168
-0.281209
-0.281633
-0.282575
-0.283884
-0.285543
-0.287602
-0.290113
-0.293133
-0.296712
-0.300893
-0.305693
-0.311093
-0.31701
-0.323282
-0.329642
-0.335691
-0.340974
-0.344876
-0.346203
-0.344367
-0.338331
-0.327274
-0.310477
-0.287883
-0.259725
-0.227221
-0.191815
-0.155452
-0.120255
-0.0874352
-0.059396
-0.035212
-0.0179377
-0.00374754
0.00267282
0.00820048
0.00572667
0.00475721
-0.270662
-0.272582
-0.277459
-0.279291
-0.279627
-0.280179
-0.281218
-0.282604
-0.284306
-0.286382
-0.288895
-0.2919
-0.295447
-0.299575
-0.304304
-0.30961
-0.315414
-0.321555
-0.327773
-0.333702
-0.338787
-0.342356
-0.343551
-0.341593
-0.33549
-0.32445
-0.307818
-0.285533
-0.257888
-0.226024
-0.191398
-0.155841
-0.121412
-0.0893087
-0.0617132
-0.0379735
-0.0206445
-0.00660326
0.000383701
0.00597184
0.00457662
0.00386362
-0.269784
-0.26999
-0.27434
-0.276316
-0.276741
-0.27734
-0.278517
-0.280089
-0.281952
-0.284144
-0.286735
-0.28978
-0.29332
-0.297385
-0.301985
-0.307091
-0.312616
-0.318399
-0.324175
-0.329561
-0.334084
-0.337086
-0.33777
-0.335354
-0.328953
-0.317844
-0.301459
-0.279746
-0.253042
-0.222368
-0.189142
-0.155011
-0.121931
-0.0910223
-0.0642503
-0.0411986
-0.0239596
-0.0101007
-0.00250699
0.00325603
0.00308647
0.00284071
-0.266354
-0.266586
-0.269435
-0.271318
-0.272193
-0.27314
-0.274577
-0.276394
-0.278475
-0.280838
-0.283551
-0.286666
-0.290217
-0.294223
-0.298683
-0.30356
-0.308761
-0.314122
-0.319382
-0.324157
-0.328025
-0.330378
-0.330459
-0.327537
-0.320829
-0.30969
-0.293635
-0.272625
-0.247017
-0.217718
-0.18607
-0.153549
-0.121967
-0.0923867
-0.0665455
-0.0442474
-0.0271759
-0.0135047
-0.00537064
0.00061744
0.00158215
0.001909
-0.260231
-0.261487
-0.263134
-0.264656
-0.265962
-0.267399
-0.269176
-0.271254
-0.273563
-0.276114
-0.278963
-0.282156
-0.285718
-0.289657
-0.293963
-0.298592
-0.303446
-0.308363
-0.313083
-0.31724
-0.320448
-0.322145
-0.321639
-0.318259
-0.311314
-0.300235
-0.284618
-0.264438
-0.240053
-0.212275
-0.182333
-0.151557
-0.121582
-0.0934262
-0.0685963
-0.0470993
-0.0302581
-0.0167775
-0.00816389
-0.00191422
9.83403e-05
0.00106637
-0.251571
-0.254349
-0.255598
-0.256778
-0.258336
-0.260227
-0.262365
-0.2647
-0.267217
-0.269941
-0.272915
-0.276172
-0.279728
-0.283583
-0.287714
-0.292072
-0.296558
-0.30101
-0.305184
-0.30873
-0.311294
-0.312362
-0.311318
-0.307554
-0.300467
-0.289561
-0.274506
-0.25529
-0.232255
-0.206124
-0.177997
-0.149069
-0.120783
-0.0941197
-0.0703668
-0.0497054
-0.0331568
-0.0198711
-0.0108475
-0.00430991
-0.00134268
0.000308858
-0.241107
-0.245408
-0.246874
-0.24795
-0.249667
-0.251918
-0.254397
-0.256978
-0.259673
-0.262533
-0.265596
-0.268884
-0.272402
-0.276138
-0.280065
-0.284126
-0.288221
-0.292197
-0.295828
-0.298789
-0.300747
-0.301239
-0.299725
-0.29567
-0.288549
-0.277936
-0.263562
-0.245425
-0.223839
-0.199442
-0.173193
-0.146165
-0.11961
-0.0944699
-0.0718373
-0.0520315
-0.0358324
-0.0227477
-0.0133868
-0.00654752
-0.00272119
-0.000367629
-0.229861
-0.235244
-0.237209
-0.238439
-0.24032
-0.242841
-0.245605
-0.248407
-0.251251
-0.254205
-0.257314
-0.260593
-0.264034
-0.267619
-0.271313
-0.275055
-0.278747
-0.282247
-0.285357
-0.287769
-0.289174
-0.289155
-0.287254
-0.283004
-0.275952
-0.265736
-0.252133
-0.23515
-0.215061
-0.192423
-0.168062
-0.142932
-0.118109
-0.0944894
-0.072998
-0.0540554
-0.0382548
-0.0253803
-0.015754
-0.00861233
-0.00402049
-0.00096844
-0.21838
-0.224419
-0.226945
-0.228495
-0.230578
-0.233306
-0.23629
-0.239274
-0.242239
-0.245256
-0.248376
-0.251611
-0.254947
-0.258357
-0.261802
-0.26522
-0.268515
-0.271549
-0.274135
-0.276082
-0.276996
-0.276542
-0.274337
-0.26998
-0.263082
-0.253336
-0.240554
-0.224749
-0.206152
-0.185248
-0.162732
-0.139453
-0.116327
-0.0941969
-0.0738473
-0.0557657
-0.0404038
-0.0277514
-0.0179279
-0.0104958
-0.00522779
-0.00149961
-0.206977
-0.213373
-0.216398
-0.218324
-0.220633
-0.22353
-0.226674
-0.2298
-0.232861
-0.235918
-0.239026
-0.242196
-0.245411
-0.248639
-0.251836
-0.254942
-0.257862
-0.260472
-0.26261
-0.264102
-0.264588
-0.263778
-0.261349
-0.25696
-0.250276
-0.241041
-0.229094
-0.214449
-0.197296
-0.178055
-0.157306
-0.135796
-0.114304
-0.0936136
-0.0743902
-0.0571594
-0.0422678
-0.0298519
-0.0198943
-0.012194
-0.00633423
-0.00196707
-0.195858
-0.202388
-0.205798
-0.20808
-0.210614
-0.213653
-0.216915
-0.220144
-0.223277
-0.226358
-0.22944
-0.232535
-0.235624
-0.238673
-0.241636
-0.244452
-0.247036
-0.249273
-0.251016
-0.252098
-0.252224
-0.251137
-0.248556
-0.244195
-0.237768
-0.22906
-0.217932
-0.2044
-0.188616
-0.17094
-0.151854
-0.132013
-0.112074
-0.0927609
-0.0746359
-0.0582404
-0.0438424
-0.0316791
-0.0216447
-0.0137068
-0.00733437
-0.00237634
-0.185099
-0.191619
-0.195302
-0.197883
-0.200617
-0.203771
-0.207116
-0.210416
-0.213596
-0.216688
-0.219736
-0.222752
-0.225719
-0.228599
-0.231347
-0.233905
-0.236192
-0.238106
-0.239509
-0.240245
-0.24008
-0.238785
-0.236116
-0.23183
-0.225687
-0.217506
-0.207167
-0.194685
-0.18018
-0.163961
-0.146423
-0.128142
-0.109667
-0.0916595
-0.074597
-0.0590172
-0.045129
-0.0332348
-0.0231757
-0.0150365
-0.00822562
-0.00273229
-0.174736
-0.181154
-0.185012
-0.187822
-0.190716
-0.193957
-0.197355
-0.200696
-0.203901
-0.206989
-0.209997
-0.212934
-0.215784
-0.21851
-0.221066
-0.223397
-0.225428
-0.227064
-0.228184
-0.228642
-0.228249
-0.226808
-0.224105
-0.219935
-0.214092
-0.206429
-0.196838
-0.185337
-0.172017
-0.157144
-0.14104
-0.124206
-0.107103
-0.0903292
-0.0742878
-0.0595015
-0.0461333
-0.0345249
-0.0244875
-0.0161869
-0.00900762
-0.00303911
-0.164795
-0.171045
-0.174997
-0.177969
-0.180976
-0.184271
-0.187693
-0.191046
-0.194254
-0.197324
-0.200284
-0.203143
-0.205883
-0.208468
-0.210855
-0.212989
-0.214802
-0.216207
-0.217095
-0.217339
-0.216779
-0.215244
-0.212551
-0.208526
-0.202995