/*--------------------------------*- C++ -*----------------------------------*\
  =========                 |
  \\      /  F ield         | OpenFOAM: The Open Source CFD Toolbox
   \\    /   O peration     | Website:  https://openfoam.org
    \\  /    A nd           | Version:  7
     \\/     M anipulation  |
\*---------------------------------------------------------------------------*/
FoamFile
{
    version     2.0;
    format      ascii;
    class       volVectorField;
    location    "10";
    object      U;
}
// * * * * * * * * * * * * * * * * * * * * * * * * * * * * * * * * * * * * * //

dimensions      [0 1 -1 0 0 0 0];

internalField   nonuniform List<vector> 
12772
(
(-0.000759394 0.000599955 2.01172e-21)
(-0.00386044 0.00131334 7.84015e-21)
(-0.00937702 0.00167236 -3.07703e-21)
(-0.015605 0.00177149 2.27655e-21)
(-0.0218149 0.00168085 -1.73715e-20)
(-0.0274765 0.00146381 -7.74555e-21)
(-0.032225 0.00117811 -1.71291e-21)
(-0.035905 0.000876643 -2.56865e-20)
(-0.0385356 0.000601304 3.41792e-21)
(-0.040151 0.00039013 1.62707e-20)
(-0.00084305 0.00179366 -1.84085e-20)
(-0.00400045 0.00392681 -4.1879e-21)
(-0.00945519 0.00500171 1.31935e-20)
(-0.0155338 0.00529971 -5.18947e-20)
(-0.0215196 0.0050303 -6.75104e-21)
(-0.0268923 0.004383 1.03572e-20)
(-0.0312954 0.00353078 3.88216e-21)
(-0.0345834 0.00263242 7.13205e-20)
(-0.0367839 0.00181447 -5.25013e-20)
(-0.0378823 0.00119441 8.67547e-21)
(-0.00100705 0.00294783 3.54621e-20)
(-0.00427253 0.00644547 -5.37167e-21)
(-0.0096007 0.00820119 2.27178e-20)
(-0.015379 0.00867681 5.32398e-20)
(-0.0209154 0.00821804 1.13668e-19)
(-0.0257098 0.00713805 -8.53667e-20)
(-0.0294221 0.00572344 3.03553e-22)
(-0.0319264 0.00423835 -6.92543e-20)
(-0.0332678 0.00289565 9.00622e-20)
(-0.0333319 0.00190195 -8.62975e-20)
(-0.00124456 0.00403716 4.11247e-21)
(-0.00466026 0.00880847 -3.24102e-21)
(-0.00979109 0.0111874 2.55337e-20)
(-0.015114 0.0118057 -3.84426e-20)
(-0.0199738 0.0111403 -3.02726e-20)
(-0.0239001 0.00962382 1.5021e-19)
(-0.0265767 0.00765378 -4.77813e-20)
(-0.0279063 0.00559873 -1.40174e-19)
(-0.0279627 0.00376053 -4.70812e-20)
(-0.0264741 0.00245136 6.39096e-20)
(-0.00154556 0.00503789 6.91776e-21)
(-0.00513932 0.0109584 3.17581e-20)
(-0.00999287 0.0138815 -7.11842e-20)
(-0.0146997 0.0145949 8.75846e-20)
(-0.0186524 0.0136996 5.99515e-20)
(-0.0214194 0.0117419 -2.32156e-19)
(-0.0227158 0.00922626 2.02962e-19)
(-0.0224813 0.0066244 1.24882e-19)
(-0.0208319 0.00433097 4.36869e-20)
(-0.0172707 0.00279189 -1.40441e-20)
(-0.00189702 0.00592831 -5.01896e-20)
(-0.00567788 0.0128424 -2.45989e-20)
(-0.0101619 0.016211 2.23258e-20)
(-0.0140838 0.0169605 -1.94433e-19)
(-0.0168944 0.015807 9.85679e-20)
(-0.0182092 0.013403 -2.62253e-20)
(-0.0177812 0.0103549 1.56471e-21)
(-0.0155943 0.00723483 2.38356e-20)
(-0.0118224 0.00453442 -5.49172e-20)
(-0.00568021 0.00289799 -3.07957e-20)
(-0.00228318 0.00668916 1.11382e-19)
(-0.00623702 0.0144134 -1.38714e-20)
(-0.0102438 0.0181114 8.89475e-20)
(-0.0132015 0.0188281 3.13341e-20)
(-0.0146287 0.0173845 -2.79809e-20)
(-0.0141961 0.0145301 -2.35912e-20)
(-0.0117 0.0109665 -1.67475e-20)
(-0.00717433 0.00736111 -4.75773e-20)
(-0.000854852 0.00430042 2.55179e-20)
(0.00833735 0.00272872 2.02863e-19)
(-0.00268583 0.00730391 -1.19049e-19)
(-0.00677129 0.0156307 8.5085e-20)
(-0.0101743 0.0195272 -1.63946e-19)
(-0.0119757 0.0201346 1.98796e-20)
(-0.0117704 0.0183673 5.0717e-20)
(-0.00929116 0.0150611 1.90734e-19)
(-0.00438391 0.0110038 -9.13017e-20)
(0.00285893 0.00695195 1.56171e-19)
(0.0121516 0.00359367 -1.08061e-19)
(0.0248943 0.00223163 -1.39426e-19)
(-0.00308459 0.00775896 9.98366e-20)
(-0.00722914 0.0164607 -5.2258e-20)
(-0.00987995 0.0204131 -1.36421e-19)
(-0.0103174 0.0208299 1.2842e-20)
(-0.00822041 0.0187059 -2.52073e-19)
(-0.00339063 0.0149512 -1.52569e-20)
(0.00427217 0.010429 1.13358e-20)
(0.0146111 0.00597838 -7.83032e-20)
(0.0272811 0.00239903 1.86249e-19)
(0.0440772 0.00139364 7.4449e-20)
(-0.00345715 0.00804367 -7.86313e-20)
(-0.00755358 0.0168772 -1.33568e-19)
(-0.00927847 0.020735 3.52178e-19)
(-0.0081263 0.0208779 1.34515e-19)
(-0.00386646 0.0183677 4.49371e-20)
(0.00362447 0.0141754 1.01836e-19)
(0.0143885 0.00922656 -1.17093e-19)
(0.0282009 0.00443193 1.91473e-20)
(0.0446451 0.000702953 -3.04349e-19)
(0.0659924 0.000243068 2.86538e-20)
(-0.00377953 0.00815033 2.13079e-20)
(-0.00768263 0.0168617 6.45559e-20)
(-0.00827985 0.0204702 -4.65479e-19)
(-0.00529159 0.0202576 -6.7393e-20)
(0.00141635 0.0173386 6.91622e-20)
(0.0118871 0.0127303 -3.32515e-19)
(0.0261002 0.00740619 -1.12136e-20)
(0.0437599 0.00233253 -7.86481e-21)
(0.0643673 -0.00147532 -1.13906e-19)
(0.0907511 -0.00118946 1.64973e-20)
(-0.00402621 0.00807403 -2.27944e-20)
(-0.00755007 0.0164036 1.18942e-19)
(-0.00678703 0.0196081 3.10542e-19)
(-0.00169329 0.0189634 -1.56949e-19)
(0.00776433 0.0156234 1.20855e-20)
(0.0215434 0.0106361 -1.29515e-19)
(0.0395562 0.00500577 -3.32593e-20)
(0.0614328 -0.000266775 3.15556e-19)
(0.0865808 -0.00408024 2.58475e-19)
(0.118457 -0.00284016 -3.27481e-20)
(-0.00417022 0.0078128 2.26241e-20)
(-0.00708596 0.0155004 5.20877e-20)
(-0.00469737 0.0181501 -2.82013e-19)
(0.00279627 0.0170058 1.14323e-19)
(0.0153232 0.0132466 1.25385e-19)
(0.0327505 0.00793654 4.45619e-19)
(0.0549175 0.00209271 2.46271e-19)
(0.0813762 -0.00327691 -1.23826e-19)
(0.111435 -0.00701506 -3.26915e-20)
(0.149271 -0.00459965 -1.64866e-19)
(-0.00418366 0.0073674 1.66733e-19)
(-0.00621752 0.0141567 -2.67665e-19)
(-0.001904 0.0161097 4.21286e-19)
(0.00831008 0.0144108 -1.52169e-19)
(0.0242452 0.0102514 -1.57344e-19)
(0.0456736 0.00469847 -5.02269e-19)
(0.0723545 -0.00123637 -3.3538e-19)
(0.103755 -0.00657071 1.88828e-19)
(0.13908 -0.01014 2.82688e-19)
(0.1833 -0.00635443 2.90284e-19)
(-0.00403765 0.00674115 -1.48431e-19)
(-0.00487027 0.0123855 -6.95713e-20)
(0.00170214 0.0135127 1.01699e-20)
(0.0149835 0.0112196 1.89785e-20)
(0.0346854 0.00669882 4.09412e-19)
(0.0604816 0.00100925 1.55908e-20)
(0.0920426 -0.00485821 3.28528e-19)
(0.128742 -0.00998255 -2.99514e-19)
(0.169674 -0.0132592 -5.85565e-19)
(0.220639 -0.00792778 -2.80011e-19)
(-0.00370275 0.00594027 5.60982e-20)
(-0.00296926 0.0102079 4.22937e-19)
(0.00622971 0.0103963 6.89973e-21)
(0.0229505 0.00748737 -2.41872e-19)
(0.0467965 0.00266486 1.54532e-19)
(0.077341 -0.0030276 -2.66047e-19)
(0.114156 -0.00862948 -5.65389e-20)
(0.15651 -0.0133145 1.39606e-19)
(0.203387 -0.0161186 1.79364e-19)
(0.261369 -0.00909742 1.4007e-19)
(-0.00314949 0.00497405 1.27982e-19)
(-0.000440721 0.00765299 -2.12027e-19)
(0.011784 0.00680979 -2.01056e-19)
(0.0323386 0.00328273 -2.91951e-20)
(0.0607219 -0.0017619 1.48352e-19)
(0.096407 -0.00729857 5.05009e-19)
(0.138859 -0.0123979 4.20815e-19)
(0.187228 -0.0163491 6.37153e-20)
(0.240395 -0.0183956 5.24171e-19)
(0.305528 -0.00954881 2.32037e-19)
(-0.002349 0.00385514 6.06474e-20)
(0.00278599 0.00475882 3.90653e-19)
(0.0184632 0.00281424 1.00231e-19)
(0.0432639 -0.00131313 4.16472e-19)
(0.0765876 -0.00648327 -1.55312e-19)
(0.117813 -0.0116882 -4.99708e-19)
(0.166293 -0.0160202 -2.57559e-19)
(0.221053 -0.0188691 -2.96736e-19)
(0.280859 -0.0196348 -6.38346e-19)
(0.35298 -0.00866437 -7.17045e-20)
(-0.00127382 0.00259989 -2.81272e-19)
(0.00677626 0.00157256 1.88955e-19)
(0.0263551 -0.0015169 -2.76234e-19)
(0.0558241 -0.00620651 -1.84708e-19)
(0.0944925 -0.0113936 -7.40064e-20)
(0.141656 -0.0160892 -2.18374e-20)
(0.19657 -0.0193929 7.97731e-20)
(0.258162 -0.0207092 1.29181e-19)
(0.325039 -0.0192527 2.24218e-19)
(0.403327 -0.00555224 -3.64924e-19)
(0.000101256 0.00122865 9.07294e-21)
(0.011588 -0.00184888 -1.929e-19)
(0.0355329 -0.00609694 1.44486e-19)
(0.0700926 -0.0112898 2.43527e-19)
(0.114495 -0.0163791 -1.62803e-19)
(0.167972 -0.0204086 4.06044e-19)
(0.229726 -0.0224883 -1.43008e-19)
(0.298774 -0.0218952 -7.20438e-20)
(0.373825 -0.017145 1.07165e-20)
(0.457609 -0.000993682 1.08631e-19)
(0.00179842 -0.000234033 -2.20438e-20)
(0.0172701 -0.00543844 2.26616e-19)
(0.0460525 -0.0108248 -2.32215e-20)
(0.0861132 -0.0164382 -1.81885e-19)
(0.136603 -0.0213101 1.50901e-19)
(0.196698 -0.0245526 -1.34974e-19)
(0.265599 -0.0253413 5.85103e-19)
(0.342683 -0.0228101 -1.55738e-19)
(0.428033 -0.0148601 3.31315e-19)
(0.52375 -6.20709e-06 -1.75659e-19)
(0.00383625 -0.00175951 -1.37448e-19)
(0.0238607 -0.00911887 2.09879e-19)
(0.0579514 -0.0155839 -1.25293e-19)
(0.103899 -0.0215055 1.7863e-19)
(0.160769 -0.0260259 -3.27504e-19)
(0.227667 -0.0283773 -4.45119e-19)
(0.303749 -0.0279085 -4.47722e-19)
(0.388549 -0.0239545 6.1292e-20)
(0.482785 -0.0152099 2.37736e-19)
(0.585719 -0.00669262 -7.62566e-20)
(0.00622948 -0.00331544 2.58166e-19)
(0.0313877 -0.0128035 -2.96294e-19)
(0.0712491 -0.0202429 -7.01945e-20)
(0.123437 -0.0263228 -3.36243e-19)
(0.186914 -0.0303264 6.21454e-19)
(0.260669 -0.0316501 4.78173e-19)
(0.343722 -0.0298882 9.46977e-20)
(0.435445 -0.024733 -5.12356e-21)
(0.536288 -0.0157061 -5.8961e-20)
(0.642591 -0.0111158 9.34364e-19)
(0.008989 -0.00486651 -5.27451e-20)
(0.0398679 -0.0163979 8.40778e-21)
(0.0859481 -0.0246578 -1.69793e-19)
(0.144693 -0.0307028 -5.67337e-20)
(0.214936 -0.033982 2.54146e-19)
(0.295502 -0.0340848 -5.52406e-19)
(0.385174 -0.0308721 2.36424e-19)
(0.482947 -0.024387 1.10231e-19)
(0.588562 -0.0146859 -7.89525e-19)
(0.696461 -0.0113615 -1.40652e-19)
(0.012122 -0.00637521 2.95259e-19)
(0.0493074 -0.0198018 -1.70848e-19)
(0.102035 -0.0286767 1.76123e-19)
(0.167612 -0.0344485 6.43071e-20)
(0.244721 -0.036753 -9.7104e-20)
(0.331971 -0.0353896 -4.61938e-20)
(0.427839 -0.0304846 -2.45273e-19)
(0.530839 -0.0223886 2.69764e-19)
(0.639901 -0.011513 1.87176e-20)
(0.748507 -0.00777293 -1.49984e-19)
(0.0156319 -0.00780266 -1.57968e-19)
(0.0597016 -0.0229118 4.06326e-19)
(0.119478 -0.0321438 -1.18205e-19)
(0.192122 -0.0373612 3.07822e-20)
(0.276135 -0.0384037 5.80758e-19)
(0.369877 -0.0352941 -2.61854e-19)
(0.471473 -0.0284174 -2.44849e-19)
(0.578923 -0.018395 9.50459e-20)
(0.690388 -0.00590168 8.33098e-20)
(0.798967 -0.000665073 -7.93755e-20)
(0.0195185 -0.00910923 7.10868e-20)
(0.0710345 -0.0256232 3.88933e-20)
(0.13823 -0.0349038 4.93458e-20)
(0.218125 -0.0392472 -8.61114e-20)
(0.309024 -0.0387139 -1.03751e-19)
(0.409005 -0.0335617 -4.09847e-19)
(0.515818 -0.024432 5.66994e-20)
(0.626961 -0.0121944 7.21398e-20)
(0.739911 0.00225344 1.36095e-19)
(0.847731 0.00964061 4.10458e-19)
(0.0237776 -0.010255 -5.94133e-20)
(0.0832778 -0.027832 -5.10444e-19)
(0.158223 -0.0368058 3.60557e-19)
(0.245502 -0.0399241 1.69543e-19)
(0.343205 -0.0374853 -2.74658e-19)
(0.449111 -0.0299964 -4.24307e-20)
(0.560589 -0.0183583 3.33757e-19)
(0.674665 -0.00368071 5.73141e-19)
(0.78824 0.0129243 1.61184e-20)
(0.894552 0.0227771 -1.59546e-19)
(0.0284008 -0.0112002 -8.67686e-20)
(0.0963908 -0.0294364 1.82595e-19)
(0.17937 -0.037706 -4.63686e-19)
(0.274107 -0.0392243 -1.71324e-19)
(0.378467 -0.0345469 1.86266e-19)
(0.489922 -0.0244457 1.05007e-19)
(0.605466 -0.0100903 -3.82932e-19)
(0.721703 0.00716709 -2.79178e-19)
(0.835071 0.0259945 -3.65147e-19)
(0.93912 0.0383664 2.24241e-19)
(0.0333749 -0.0119056 3.28918e-20)
(0.110319 -0.0303386 3.27459e-19)
(0.201562 -0.0374702 1.70847e-19)
(0.303768 -0.0369991 1.90649e-19)
(0.41457 -0.0297576 -6.92531e-20)
(0.531134 -0.0168009 3.40185e-19)
(0.650102 0.000419887 -3.05389e-20)
(0.767713 0.0203036 2.03806e-19)
(0.880064 0.0412909 4.06994e-19)
(0.981109 0.0560357 -1.90539e-19)
(0.0386815 -0.0123325 -9.32773e-20)
(0.124994 -0.0304455 -1.99235e-19)
(0.224669 -0.0359768 -1.31581e-19)
(0.334287 -0.0331212 1.32404e-19)
(0.451248 -0.0230087 2.7601e-20)
(0.57242 -0.0069971 -2.89852e-19)
(0.694127 0.0131682 6.90622e-20)
(0.812318 0.0356305 8.98084e-20)
(0.92287 0.0586026 5.84742e-20)
(1.02022 0.0754235 7.08603e-20)
(0.0442965 -0.0124437 6.34673e-20)
(0.140331 -0.0296708 1.76247e-19)
(0.248541 -0.033118 1.81463e-19)
(0.365442 -0.0274864 -2.32989e-19)
(0.488209 -0.0142247 -1.72552e-19)
(0.613432 0.00498888 1.08434e-19)
(0.737163 0.0281038 1.84305e-19)
(0.855142 0.0530067 -4.80955e-20)
(0.963155 0.0776934 -2.09159e-19)
(1.05618 0.0961838 -5.85538e-20)
(0.0501898 -0.0122038 4.02934e-20)
(0.156233 -0.027936 -1.05271e-20)
(0.273006 -0.0288022 -8.15306e-20)
(0.396987 -0.0200162 -1.21241e-20)
(0.525141 -0.00336424 -1.35591e-20)
(0.65381 0.0191396 1.36137e-19)
(0.778829 0.0451343 -2.27988e-19)
(0.895823 0.0722568 -1.48662e-19)
(1.00062 0.0983107 -5.17543e-21)
(1.08878 0.11799 1.06161e-19)
(0.0563249 -0.0115796 1.82385e-19)
(0.172587 -0.025172 -3.89858e-20)
(0.297873 -0.022956 -6.35459e-20)
(0.42866 -0.0106584 -8.99296e-21)
(0.561719 0.00957995 -3.14545e-20)
(0.693189 0.0353994 -1.48563e-19)
(0.818754 0.0641305 9.77778e-20)
(0.934025 0.0931786 -1.41568e-19)
(1.03499 0.120193 9.56599e-20)
(1.11786 0.140537 2.73005e-19)
(0.0626592 -0.0105413 -7.93237e-20)
(0.189265 -0.0213209 -1.73881e-19)
(0.322936 -0.0155256 -2.22705e-20)
(0.46018 0.000610672 2.25542e-19)
(0.59761 0.0245809 7.55465e-20)
(0.731206 0.0536762 1.7095e-19)
(0.856585 0.0849313 2.95765e-19)
(0.969447 0.115549 6.87953e-20)
(1.06606 0.143077 7.40015e-20)
(1.14333 0.163545 -2.01584e-19)
(0.0691435 -0.00906291 6.40932e-21)
(0.206128 -0.0163374 1.18294e-19)
(0.347973 -0.00647891 1.27114e-19)
(0.491258 0.013786 -1.43917e-19)
(0.632476 0.0415783 1.89136e-19)
(0.767511 0.0738451 -1.73221e-19)
(0.891996 0.107348 -4.02552e-20)
(1.00183 0.139131 -6.41752e-20)
(1.09367 0.166699 -7.04098e-20)
(1.16515 0.186755 -1.05889e-19)
(0.0757231 -0.00712339 -7.7144e-21)
(0.223023 -0.0101909 -1.15984e-20)
(0.372749 0.00419322 -8.88406e-21)
(0.521598 0.028833 -7.73855e-21)
(0.665985 0.0604791 3.77134e-20)
(0.801769 0.0957502 4.54722e-20)
(0.924693 0.131171 -5.06079e-20)
(1.03095 0.163676 -3.8474e-20)
(1.1177 0.190806 -4.40407e-20)
(1.18331 0.209936 1.38679e-19)
(0.0823378 -0.00470725 -1.14718e-20)
(0.23979 -0.00286652 3.03037e-20)
(0.397024 0.0164757 5.017e-20)
(0.5509 0.0456872 -1.64692e-20)
(0.697813 0.0811593 -1.25276e-19)
(0.833669 0.119209 -1.04133e-19)
(0.954416 0.15617 -4.59289e-21)
(1.05664 0.188934 8.85623e-20)
(1.13809 0.21515 -1.44564e-20)
(1.19787 0.23288 -3.83407e-20)
(0.0889227 -0.00180543 -2.82812e-20)
(0.256259 0.00563345 1.60607e-20)
(0.420552 0.0303281 -1.83843e-20)
(0.578871 0.0642546 4.25379e-21)
(0.727652 0.103466 1.55172e-20)
(0.862931 0.144015 2.27934e-20)
(0.98095 0.182104 -4.42497e-21)
(1.07878 0.214652 -5.28718e-20)
(1.15483 0.239498 3.25037e-21)
(1.20891 0.2554 1.83963e-20)
(0.0954092 0.00158403 -8.99661e-21)
(0.272256 0.0152883 -9.82968e-23)
(0.443085 0.0456847 2.64324e-21)
(0.605225 0.0844127 -2.67348e-21)
(0.755215 0.127219 1.98437e-20)
(0.889303 0.169942 7.06754e-21)
(1.00412 0.208721 4.19849e-21)
(1.0973 0.240582 -1.79412e-21)
(1.16793 0.263631 -7.88581e-21)
(1.21655 0.277333 -1.73435e-20)
(0.101726 0.00545538 -4.1343e-21)
(0.287606 0.0260583 -1.34663e-20)
(0.464381 0.0624538 1.07632e-20)
(0.629689 0.106011 -1.00804e-21)
(0.780239 0.152214 1.16231e-20)
(0.912572 0.196747 1.12854e-20)
(1.02379 0.235766 9.63123e-21)
(1.11215 0.26648 -8.02369e-21)
(1.17747 0.287342 -8.53114e-21)
(1.22093 0.298531 -1.39387e-20)
(0.1078 0.00979479 -1.40273e-20)
(0.302133 0.0378845 -1.51057e-20)
(0.484207 0.080519 -1.02641e-20)
(0.652009 0.128875 -1.06604e-20)
(0.80249 0.178227 2.35335e-20)
(0.932563 0.224177 3.69612e-20)
(1.03987 0.262979 -5.01738e-21)
(1.12334 0.292111 -3.92523e-20)
(1.18352 0.31044 -6.65306e-21)
(1.22221 0.318864 -5.93287e-21)
(0.113559 0.01458 -1.49698e-20)
(0.315666 0.0506882 8.12365e-21)
(0.502337 0.0997393 2.35724e-20)
(0.671953 0.152806 9.56665e-21)
(0.821767 0.205015 -1.47858e-19)
(0.949138 0.251968 -1.99007e-20)
(1.0523 0.290104 -2.20112e-20)
(1.13091 0.317251 6.91135e-20)
(1.18622 0.33275 -2.68725e-20)
(1.22055 0.338218 -1.26056e-20)
(0.11893 0.0197803 1.60876e-20)
(0.328041 0.0643722 -3.68907e-20)
(0.518567 0.119952 -7.28962e-20)
(0.689314 0.177583 2.1552e-20)
(0.837902 0.232321 6.95536e-20)
(0.962199 0.279853 1.49336e-20)
(1.06109 0.316891 1.20099e-20)
(1.13494 0.341686 -2.66967e-20)
(1.18569 0.354108 -3.42188e-20)
(1.21614 0.356489 8.26976e-20)
(0.123844 0.0253565 3.20761e-20)
(0.339104 0.078821 1.51452e-19)
(0.532708 0.140972 2.51476e-20)
(0.703914 0.202969 -1.10149e-19)
(0.850766 0.25988 6.3412e-20)
(0.971689 0.307562 -1.07597e-20)
(1.06624 0.343093 -1.23597e-19)
(1.13552 0.365216 1.03513e-20)
(1.1821 0.374366 -2.83436e-20)
(1.20915 0.373583 -6.26632e-20)
(0.128234 0.0312615 -1.24682e-19)
(0.348713 0.0939023 -1.57613e-19)
(0.544595 0.162598 -2.99754e-20)
(0.715609 0.228715 2.69823e-19)
(0.860264 0.287416 -1.39898e-20)
(0.977585 0.334829 1.9625e-19)
(1.06782 0.368475 1.38469e-19)
(1.13277 0.387651 1.16303e-19)
(1.17559 0.393386 2.31171e-20)
(1.19976 0.389417 -6.92581e-20)
(0.132039 0.0374402 1.16181e-19)
(0.356743 0.109469 -1.2303e-19)
(0.55409 0.184613 8.35346e-20)
(0.724285 0.254557 -9.91673e-20)
(0.866341 0.314655 2.43491e-20)
(0.979903 0.361391 -1.40056e-19)
(1.06591 0.392812 8.74158e-21)
(1.12683 0.408816 -1.64939e-20)
(1.16635 0.41104 2.38007e-20)
(1.18817 0.403911 1.17424e-19)
(0.135205 0.043831 7.24751e-21)
(0.363085 0.12536 4.21913e-20)
(0.561082 0.206785 -5.86048e-20)
(0.729865 0.280227 -2.58921e-20)
(0.868977 0.34132 -5.47136e-20)
(0.978692 0.386995 1.23042e-19)
(1.06062 0.415892 -1.65455e-19)
(1.11785 0.428548 -5.55755e-20)
(1.15454 0.42721 2.46342e-20)
(1.17452 0.416989 -3.69854e-20)
(0.137684 0.0503657 1.21906e-20)
(0.367652 0.141404 6.3316e-20)
(0.565487 0.228877 2.49409e-19)
(0.732308 0.305452 -2.06035e-19)
(0.868192 0.367138 -1.04137e-19)
(0.974036 0.411396 -5.83975e-20)
(1.05209 0.437517 1.5265e-19)
(1.106 0.446705 5.40317e-20)
(1.14034 0.441798 -8.52643e-20)
(1.15892 0.428565 -3.31745e-20)
(0.139437 0.0569711 -4.30004e-20)
(0.370377 0.157421 -9.58284e-20)
(0.567257 0.250644 -1.86206e-19)
(0.731607 0.329961 1.60631e-19)
(0.864037 0.391846 5.29405e-21)
(0.966045 0.434362 -1.29919e-19)
(1.04047 0.457502 5.51265e-20)
(1.09147 0.463152 -3.75539e-21)
(1.12396 0.454753 3.88689e-20)
(1.14155 0.43857 -8.47581e-21)
(0.140433 0.0635698 -2.21123e-20)
(0.371217 0.173225 1.56464e-19)
(0.566371 0.271837 1.94413e-19)
(0.727792 0.353484 5.24859e-20)
(0.856602 0.415186 -4.20352e-20)
(0.954859 0.455675 2.48308e-19)
(1.02593 0.475674 -9.09266e-20)
(1.07443 0.47775 3.43269e-20)
(1.10552 0.465982 1.1104e-19)
(1.12267 0.446981 1.88584e-20)
(0.140654 0.0700815 -7.78874e-20)
(0.370153 0.188628 3.64357e-20)
(0.562842 0.292211 -1.5545e-19)
(0.720926 0.37576 -7.3166e-20)
(0.846005 0.436917 5.07567e-20)
(0.940643 0.475133 -5.15127e-21)
(1.00867 0.491884 -1.4099e-19)
(1.05507 0.490404 -7.00855e-20)
(1.08518 0.475366 -6.38162e-20)
(1.10245 0.453749 -1.30647e-20)
(0.140087 0.0764241 -4.75412e-20)
(0.367187 0.203439 -1.57471e-19)
(0.556715 0.311524 1.30909e-19)
(0.711107 0.396538 4.32555e-22)
(0.832394 0.45681 3.40382e-20)
(0.923585 0.492551 -1.0506e-19)
(0.988893 0.505997 1.19146e-19)
(1.03359 0.501025 7.13655e-20)
(1.06314 0.482848 1.64959e-20)
(1.08095 0.458791 1.70264e-20)
(0.138735 0.0825153 5.79765e-20)
(0.36235 0.217472 2.02503e-20)
(0.548064 0.329541 -1.12785e-19)
(0.698464 0.415579 2.43775e-20)
(0.815947 0.474653 -3.95822e-20)
(0.903894 0.507763 -6.35205e-20)
(0.966811 0.517892 -2.20921e-21)
(1.01018 0.509536 -7.06667e-20)
(1.03954 0.488378 3.02584e-21)
(1.05828 0.462044 -1.61724e-20)
(0.136609 0.0882743 -3.10825e-20)
(0.35569 0.230544 1.50901e-19)
(0.536994 0.346038 -9.99436e-20)
(0.683153 0.43266 9.632e-20)
(0.796866 0.490253 9.53888e-20)
(0.8818 0.520619 -4.55796e-21)
(0.94266 0.527471 -4.66643e-20)
(0.985044 0.515873 1.80278e-20)
(1.01454 0.491913 -2.93748e-20)
(1.03456 0.463443 1.08988e-20)
(0.133727 0.093621 2.79255e-20)
(0.347284 0.242483 -5.06976e-20)
(0.523636 0.360803 8.43753e-20)
(0.665357 0.447572 -3.95068e-20)
(0.775377 0.503435 -4.861e-20)
(0.857551 0.53099 5.8061e-20)
(0.916684 0.534649 1.98066e-21)
(0.958402 0.519994 5.41115e-21)
(0.988268 0.493425 -5.56986e-21)
(1.00988 0.462921 1.32951e-20)
(0.13012 0.0984755 -8.96157e-21)
(0.337231 0.253123 -1.9833e-20)
(0.508146 0.373641 -2.63567e-20)
(0.645287 0.46013 -1.41642e-20)
(0.751723 0.514045 -2.28058e-20)
(0.831405 0.538767 1.67256e-20)
(0.889143 0.539361 -1.58339e-20)
(0.930474 0.521873 -5.69516e-20)
(0.96086 0.492901 1.67427e-19)
(0.984305 0.460393 8.8954e-20)
(0.125832 0.102764 9.17332e-21)
(0.325646 0.262308 -1.1566e-20)
(0.490704 0.384374 -1.31267e-20)
(0.623171 0.470166 4.16128e-21)
(0.726165 0.521949 -1.53272e-20)
(0.80364 0.543855 -6.48088e-20)
(0.860308 0.541557 1.20292e-21)
(0.901497 0.5215 -1.45846e-20)
(0.932446 0.490342 -4.85579e-20)
(0.957937 0.455743 -1.77879e-19)
(0.120914 0.106423 -2.6467e-21)
(0.31266 0.2699 2.54538e-21)
(0.471511 0.392844 1.73712e-20)
(0.599257 0.477536 -9.95917e-21)
(0.698976 0.527033 6.20625e-20)
(0.774536 0.546181 5.69207e-20)
(0.830463 0.541201 1.54957e-19)
(0.871729 0.518889 3.47243e-20)
(0.903219 0.485778 -9.36631e-20)
(0.930866 0.448872 -4.99303e-21)
(0.115424 0.109391 -1.14879e-20)
(0.298425 0.275775 -3.25332e-20)
(0.450783 0.398912 -2.73376e-20)
(0.573803 0.482118 2.92992e-20)
(0.670437 0.529207 3.63619e-20)
(0.744382 0.545685 -3.24402e-21)
(0.799895 0.538268 -2.54761e-19)
(0.841476 0.514059 2.50851e-20)
(0.873562 0.479317 1.07717e-20)
(0.903009 0.439984 5.48568e-20)
(0.109426 0.111614 -6.55614e-21)
(0.283107 0.279828 3.56898e-20)
(0.428753 0.402464 -1.10528e-19)
(0.547083 0.483815 3.55356e-20)
(0.640834 0.528401 -2.3867e-21)
(0.713459 0.542324 -1.87865e-19)
(0.768883 0.532731 1.90143e-19)
(0.811103 0.506998 -1.74666e-19)
(0.844222 0.471125 1.99375e-19)
(0.873964 0.428662 -1.11579e-19)
(0.102991 0.113045 8.99345e-20)
(0.266881 0.281972 9.42349e-20)
(0.405665 0.403411 1.71319e-19)
(0.519375 0.482555 1.04507e-19)
(0.610454 0.524569 2.27517e-20)
(0.682038 0.536074 9.78206e-22)
(0.737678 0.524561 -1.19112e-19)
(0.780961 0.497573 2.67103e-20)
(0.815857 0.461157 -2.00708e-19)
(0.847373 0.41857 2.66569e-19)
(0.0961983 0.113648 -5.11637e-20)
(0.249935 0.282137 -7.47924e-20)
(0.381772 0.401687 -2.49056e-19)
(0.490964 0.478295 -1.12625e-19)
(0.579582 0.517694 -6.54187e-21)
(0.650378 0.52694 3.67589e-19)
(0.706485 0.513783 3.05266e-19)
(0.751076 0.485831 2.20131e-19)
(0.787812 0.449144 4.78194e-19)
(0.820837 0.407128 2.56303e-19)
(0.0891294 0.113393 -2.41109e-20)
(0.232463 0.280278 1.96717e-19)
(0.357333 0.397252 6.52401e-20)
(0.462137 0.471016 -5.15444e-20)
(0.548506 0.507782 6.33622e-20)
(0.618745 0.514951 -5.25138e-19)
(0.675526 0.500448 -2.9049e-19)
(0.721595 0.471873 -1.54907e-19)
(0.760224 0.435244 -2.89812e-19)
(0.79484 0.394153 -9.68836e-20)
(0.0818701 0.112262 -3.06938e-20)
(0.214666 0.276366 -3.47805e-19)
(0.332613 0.390093 2.7218e-20)
(0.433185 0.460726 1.36188e-19)
(0.517513 0.494863 -4.99211e-20)
(0.587403 0.500154 7.84821e-20)
(0.645034 0.484611 2.56899e-19)
(0.692717 0.455768 -1.14895e-19)
(0.733316 0.419552 -3.59975e-19)
(0.769667 0.379655 -1.55448e-20)
(0.0745082 0.110245 7.60271e-20)
(0.196744 0.270395 1.08157e-19)
(0.307875 0.380222 1.47747e-19)
(0.404397 0.447458 -7.66899e-20)
(0.486885 0.47899 -3.03799e-19)
(0.556613 0.482612 -3.41527e-19)
(0.61524 0.466339 -1.31757e-19)
(0.66464 0.437572 4.13473e-19)
(0.707267 0.402107 3.53125e-19)
(0.745448 0.363644 4.05588e-19)
(0.0671327 0.107343 -2.49679e-19)
(0.178902 0.262381 3.17289e-19)
(0.283384 0.367674 -2.17581e-19)
(0.376055 0.431271 -1.92857e-19)
(0.456901 0.460234 4.39001e-19)
(0.526628 0.462404 4.05735e-19)
(0.586366 0.445707 5.06165e-19)
(0.637552 0.417348 -1.84114e-19)
(0.682235 0.382943 -1.96281e-19)
(0.722302 0.346133 -5.87831e-19)
(0.0598327 0.103566 1.82588e-19)
(0.161341 0.252358 -7.51144e-20)
(0.259396 0.352511 2.60828e-19)
(0.348436 0.412246 -2.33772e-19)
(0.427827 0.43869 -3.30787e-20)
(0.497692 0.439625 -6.95832e-19)
(0.558625 0.422803 -3.30878e-19)
(0.611632 0.395169 1.90543e-19)
(0.65837 0.362111 7.74448e-20)
(0.700341 0.327156 -7.58762e-21)
(0.052696 0.0989323 8.97762e-20)
(0.144258 0.240382 -2.43361e-19)
(0.236164 0.334818 -3.21433e-19)
(0.321809 0.390487 2.27499e-20)
(0.399922 0.41447 3.26129e-19)
(0.470037 0.414388 -2.44954e-20)
(0.532218 0.397729 -1.20454e-19)
(0.587048 0.371118 -2.18828e-19)
(0.63581 0.339677 -4.30213e-19)
(0.679668 0.306762 1.22874e-20)
(0.0458083 0.0934716 3.41622e-20)
(0.127844 0.226528 -3.24308e-20)
(0.213929 0.314701 5.20189e-19)
(0.296427 0.366121 2.08239e-19)
(0.37343 0.38771 -7.2624e-20)
(0.443883 0.38682 5.06851e-19)
(0.507332 0.370599 -2.70057e-19)
(0.563958 0.345295 3.44778e-19)
(0.614682 0.315718 1.42196e-19)
(0.66038 0.285017 -2.42332e-19)
(0.039252 0.0872213 1.0795e-19)
(0.11228 0.210889 1.64933e-19)
(0.192922 0.292292 -5.91644e-19)
(0.272532 0.339298 -8.96094e-20)
(0.348579 0.35856 -4.08384e-19)
(0.419433 0.357067 5.54544e-20)
(0.484144 0.341543 7.36553e-20)
(0.542505 0.317809 1.17111e-19)
(0.595104 0.290325 4.37417e-19)
(0.642563 0.262001 9.47807e-20)
(0.0331053 0.0802276 -1.46593e-19)
(0.0977395 0.193576 2.11174e-19)
(0.173356 0.267739 1.50217e-20)
(0.250349 0.310184 5.70783e-20)
(0.325582 0.327189 4.04091e-19)
(0.396878 0.325286 7.30742e-21)
(0.462812 0.310703 1.10127e-19)
(0.522822 0.28878 -5.68239e-20)
(0.577182 0.263599 -2.74766e-19)
(0.626299 0.237806 -8.40604e-20)
(0.0274417 0.0725447 2.88571e-19)
(0.0843827 0.174716 -2.32687e-19)
(0.155434 0.241211 2.95953e-19)
(0.230087 0.278967 -1.80886e-20)
(0.304635 0.293785 -8.4771e-21)
(0.376389 0.291651 -3.99996e-19)
(0.443486 0.27823 8.00469e-20)
(0.505031 0.258342 2.49475e-20)
(0.561014 0.235655 -1.06858e-19)
(0.611662 0.212532 4.85802e-19)
(0.0223284 0.0642343 -3.17065e-19)
(0.0723563 0.154453 1.80662e-19)
(0.139335 0.212897 -1.84101e-19)
(0.211933 0.245851 -1.10883e-19)
(0.285915 0.258547 -3.46238e-20)
(0.358123 0.256348 9.20985e-20)
(0.426295 0.244291 1.36714e-19)
(0.489239 0.226636 1.45552e-19)
(0.54669 0.206614 -2.60962e-19)
(0.59872 0.18629 -1.8351e-19)
(0.0178263 0.0553647 8.43957e-20)
(0.061792 0.132942 -4.42736e-20)
(0.125224 0.182999 -2.83933e-20)
(0.196055 0.211055 3.48602e-19)
(0.269578 0.221691 -6.67497e-20)
(0.342217 0.219572 -7.62818e-20)
(0.411357 0.209058 1.51383e-19)
(0.475544 0.193812 -7.66238e-20)
(0.534289 0.176607 5.95224e-20)
(0.587536 0.159197 1.22933e-19)
(0.0139889 0.0460105 7.47287e-20)
(0.0528053 0.110353 -2.57382e-20)
(0.113243 0.151734 5.93068e-20)
(0.182599 0.174812 -1.91535e-19)
(0.255761 0.183442 4.50731e-20)
(0.32879 0.181531 3.07448e-19)
(0.398771 0.172714 -1.94505e-19)
(0.464029 0.160028 -3.37846e-19)
(0.523879 0.14577 -1.07726e-19)
(0.578166 0.131378 4.30125e-21)
(0.0108617 0.0362516 2.38205e-20)
(0.0454944 0.0868651 -7.71816e-20)
(0.103512 0.119331 1.59535e-19)
(0.171688 0.137366 -5.9785e-20)
(0.244576 0.144037 1.02065e-19)
(0.317941 0.14244 -2.54473e-19)
(0.388623 0.135447 1.34246e-19)
(0.454762 0.125448 1.19972e-19)
(0.515522 0.114245 1.92862e-19)
(0.570661 0.102961 -1.76387e-19)
(0.00848192 0.0261723 -8.36458e-20)
(0.0399391 0.0626666 4.2264e-20)
(0.096128 0.0860311 -7.19584e-20)
(0.163422 0.0989723 -1.00319e-19)
(0.236117 0.103721 -2.25331e-19)
(0.309751 0.102522 1.7025e-19)
(0.380978 0.097453 -4.43042e-20)
(0.447801 0.0902383 1.41407e-19)
(0.509267 0.0821781 -1.31152e-19)
(0.565071 0.074078 1.15985e-19)
(0.006878 0.0158605 2.78841e-20)
(0.0362 0.0379534 -9.55445e-21)
(0.0911654 0.0520811 -1.12633e-20)
(0.157875 0.0598927 8.44622e-20)
(0.230451 0.062746 4.58369e-20)
(0.304278 0.0620055 -4.81984e-20)
(0.375885 0.0589308 -7.38324e-21)
(0.443185 0.0545687 -1.4845e-19)
(0.50515 0.0497121 1.13068e-19)
(0.561436 0.0448543 3.58344e-20)
(0.00606909 0.00540663 -6.57057e-21)
(0.034318 0.0129264 -1.53745e-20)
(0.0886738 0.0177353 -8.86786e-21)
(0.155098 0.0203954 6.0768e-21)
(0.227624 0.0213697 3.56103e-20)
(0.30156 0.0211226 6.76342e-21)
(0.373373 0.0200832 2.48292e-20)
(0.440936 0.0186106 4.71998e-20)
(0.503187 0.0169841 -4.43426e-21)
(0.559781 0.0153941 -5.10642e-20)
(0.00606501 -0.00509691 -1.20814e-20)
(0.0343137 -0.0122101 -1.82541e-20)
(0.0886779 -0.0167486 3.20056e-21)
(0.155115 -0.0192477 -4.34852e-21)
(0.227658 -0.0201474 4.1845e-20)
(0.301615 -0.0198904 -1.55702e-21)
(0.373455 -0.0188833 2.60516e-20)
(0.441053 -0.0174602 4.43132e-20)
(0.50336 -0.0158669 7.19538e-21)
(0.560049 -0.0142509 -5.91529e-20)
(0.00686605 -0.0155573 4.78966e-20)
(0.0361876 -0.0372505 1.00665e-20)
(0.0911778 -0.0511111 -3.01444e-20)
(0.157926 -0.0587632 1.12773e-19)
(0.230551 -0.0615433 1.35663e-20)
(0.304439 -0.0607954 -2.11179e-20)
(0.376123 -0.0577587 -7.97251e-21)
(0.443525 -0.0534586 -1.35589e-19)
(0.505637 -0.0486666 9.53655e-20)
(0.56215 -0.0438619 -1.48199e-20)
(0.00846294 -0.025882 -9.14798e-20)
(0.0399197 -0.06199 1.20311e-20)
(0.0961487 -0.0850938 -5.02513e-20)
(0.163505 -0.0978786 -1.15616e-19)
(0.236279 -0.102556 -2.35633e-19)
(0.31001 -0.101354 1.71603e-19)
(0.381356 -0.0963319 -6.79587e-22)
(0.448333 -0.0891975 1.30042e-19)
(0.510003 -0.081239 -1.63717e-19)
(0.566089 -0.0732601 1.50632e-19)
(0.010837 -0.0359798 -9.68496e-21)
(0.0454698 -0.0862266 5.69841e-21)
(0.103541 -0.118442 -5.53455e-20)
(0.171801 -0.136324 8.21814e-20)
(0.244795 -0.142926 6.36582e-20)
(0.318286 -0.141331 -2.9664e-19)
(0.389121 -0.134394 9.18098e-20)
(0.455447 -0.124493 2.57518e-19)
(0.51644 -0.113421 8.35754e-20)
(0.57187 -0.102299 -1.10955e-19)
(0.0139602 -0.045762 -1.64415e-20)
(0.0527779 -0.109763 -6.96608e-20)
(0.113282 -0.150904 1.50131e-19)
(0.182739 -0.173835 -1.78263e-19)
(0.256028 -0.1824 -1.17403e-19)
(0.329207 -0.180494 4.48813e-19)
(0.399366 -0.17174 -3.7872e-19)
(0.46483 -0.159166 -2.27517e-19)
(0.524921 -0.145057 -7.78006e-20)
(0.579482 -0.130847 2.37049e-20)
(0.0177958 -0.0551434 1.17053e-19)
(0.0617646 -0.132409 5.69447e-20)
(0.125274 -0.182241 -4.88891e-20)
(0.196219 -0.210156 3.8568e-19)
(0.269887 -0.220728 -1.85796e-19)
(0.342693 -0.218617 4.34318e-20)
(0.412025 -0.208171 2.2035e-21)
(0.476428 -0.193044 -3.8598e-20)
(0.535409 -0.175998 9.37223e-20)
(0.588905 -0.158775 5.20847e-20)
(0.0222982 -0.064043 -2.45583e-19)
(0.0723324 -0.153983 2.92959e-20)
(0.139396 -0.212218 -1.70665e-19)
(0.212119 -0.245038 -6.47004e-20)
(0.286258 -0.257672 5.91787e-20)
(0.358645 -0.255481 3.42092e-20)
(0.427017 -0.243495 3.29784e-20)
(0.490178 -0.225961 8.5383e-20)
(0.547853 -0.2061 -4.19701e-20)
(0.600105 -0.185958 -3.27856e-19)
(0.0274141 -0.0723852 2.54278e-19)