/*--------------------------------*- C++ -*----------------------------------*\
  =========                 |
  \\      /  F ield         | OpenFOAM: The Open Source CFD Toolbox
   \\    /   O peration     | Website:  https://openfoam.org
    \\  /    A nd           | Version:  7
     \\/     M anipulation  |
\*---------------------------------------------------------------------------*/
FoamFile
{
    version     2.0;
    format      ascii;
    class       volScalarField;
    location    "25";
    object      p;
}
// * * * * * * * * * * * * * * * * * * * * * * * * * * * * * * * * * * * * * //

dimensions      [0 2 -2 0 0 0 0];

internalField   nonuniform List<scalar> 
12772
(
-0.229095
-0.231076
-0.232005
-0.232758
-0.233407
-0.233978
-0.234492
-0.234953
-0.235358
-0.235716
-0.229296
-0.231254
-0.232171
-0.232911
-0.233548
-0.234105
-0.234605
-0.235052
-0.235439
-0.235765
-0.229692
-0.231605
-0.232496
-0.233212
-0.233823
-0.234354
-0.234826
-0.235242
-0.235592
-0.235852
-0.230277
-0.232123
-0.232976
-0.233654
-0.234226
-0.234717
-0.235145
-0.235514
-0.235809
-0.235963
-0.231041
-0.232802
-0.233604
-0.234231
-0.23475
-0.235186
-0.235553
-0.235856
-0.236079
-0.236076
-0.231974
-0.233632
-0.234371
-0.234932
-0.235384
-0.23575
-0.236038
-0.236255
-0.236389
-0.236162
-0.233063
-0.234603
-0.235266
-0.235749
-0.236118
-0.236397
-0.236586
-0.236693
-0.236728
-0.236183
-0.234296
-0.235705
-0.23628
-0.236669
-0.236939
-0.237113
-0.237184
-0.237152
-0.237087
-0.236089
-0.235659
-0.236927
-0.237402
-0.237683
-0.237836
-0.237888
-0.237819
-0.237613
-0.237467
-0.235799
-0.237143
-0.238261
-0.238624
-0.238779
-0.238798
-0.23871
-0.238481
-0.238063
-0.237904
-0.235212
-0.238739
-0.2397
-0.239936
-0.239949
-0.239815
-0.23957
-0.239162
-0.238484
-0.238432
-0.234427
-0.240441
-0.241239
-0.241334
-0.241186
-0.24088
-0.240458
-0.239858
-0.238866
-0.238626
-0.233738
-0.242249
-0.242878
-0.242814
-0.242485
-0.241986
-0.24137
-0.240566
-0.239358
-0.238761
-0.23273
-0.244167
-0.244618
-0.244378
-0.243844
-0.243131
-0.242302
-0.241271
-0.239841
-0.238959
-0.231425
-0.246204
-0.246467
-0.246029
-0.245265
-0.244313
-0.243253
-0.241982
-0.240322
-0.239169
-0.229945
-0.248378
-0.248438
-0.247777
-0.246752
-0.245534
-0.244221
-0.242696
-0.240835
-0.23931
-0.228468
-0.250711
-0.250549
-0.249633
-0.248319
-0.246802
-0.245209
-0.243406
-0.241413
-0.239254
-0.227176
-0.253234
-0.252823
-0.251622
-0.24998
-0.24813
-0.246228
-0.244112
-0.242091
-0.238799
-0.226176
-0.255986
-0.255286
-0.253772
-0.251762
-0.249542
-0.247299
-0.244832
-0.242898
-0.237849
-0.226237
-0.259017
-0.257979
-0.256111
-0.253695
-0.25107
-0.248454
-0.245602
-0.243779
-0.23679
-0.230641
-0.262374
-0.260944
-0.25868
-0.255821
-0.252755
-0.249735
-0.246467
-0.244534
-0.236282
-0.2417
-0.26611
-0.264228
-0.261523
-0.258186
-0.254649
-0.251188
-0.247478
-0.245048
-0.236526
-0.240721
-0.270287
-0.267877
-0.264688
-0.260841
-0.256804
-0.252863
-0.248676
-0.24543
-0.236993
-0.237887
-0.274963
-0.271939
-0.268224
-0.263838
-0.259276
-0.254803
-0.250066
-0.245841
-0.237319
-0.235113
-0.280192
-0.276465
-0.272182
-0.267229
-0.262111
-0.257043
-0.251642
-0.246316
-0.237392
-0.232301
-0.286024
-0.281498
-0.276608
-0.271061
-0.265345
-0.259599
-0.253391
-0.246833
-0.237141
-0.229553
-0.2925
-0.287079
-0.281549
-0.275375
-0.269003
-0.262469
-0.255284
-0.247334
-0.236548
-0.226797
-0.299652
-0.293244
-0.287041
-0.280203
-0.273091
-0.265631
-0.257266
-0.247739
-0.235605
-0.223961
-0.307497
-0.300018
-0.293116
-0.285561
-0.277597
-0.269037
-0.259252
-0.247958
-0.234304
-0.220969
-0.316038
-0.307415
-0.299787
-0.291446
-0.282489
-0.27261
-0.261137
-0.247905
-0.232634
-0.217757
-0.325255
-0.315432
-0.30705
-0.29783
-0.287701
-0.276235
-0.262801
-0.247498
-0.230577
-0.214267
-0.335107
-0.324046
-0.314875
-0.304655
-0.293132
-0.279769
-0.264125
-0.246666
-0.228104
-0.210447
-0.345524
-0.333206
-0.323199
-0.311828
-0.298637
-0.283051
-0.264992
-0.245342
-0.225183
-0.206246
-0.356404
-0.34283
-0.331924
-0.319215
-0.304033
-0.28591
-0.26529
-0.243462
-0.22177
-0.201617
-0.36761
-0.3528
-0.340913
-0.326637
-0.309108
-0.288176
-0.264914
-0.240962
-0.217819
-0.196508
-0.378967
-0.362958
-0.349985
-0.333872
-0.313637
-0.289688
-0.263766
-0.237778
-0.213275
-0.19087
-0.390263
-0.373107
-0.358921
-0.34066
-0.317387
-0.290289
-0.26175
-0.233842
-0.208083
-0.184655
-0.401249
-0.383011
-0.367459
-0.346718
-0.320131
-0.289834
-0.258774
-0.229088
-0.202184
-0.177817
-0.411643
-0.392399
-0.375303
-0.35175
-0.321655
-0.288187
-0.254749
-0.223447
-0.19552
-0.170314
-0.421136
-0.400969
-0.382129
-0.355464
-0.321756
-0.285223
-0.24959
-0.216852
-0.188034
-0.162108
-0.429398
-0.408398
-0.387603
-0.357582
-0.320254
-0.280828
-0.243217
-0.209238
-0.179672
-0.153161
-0.436087
-0.414348
-0.391385
-0.357844
-0.316985
-0.274899
-0.235556
-0.200544
-0.170387
-0.143444
-0.44086
-0.418476
-0.393155
-0.35602
-0.311808
-0.267346
-0.22654
-0.190716
-0.160143
-0.132941
-0.443381
-0.420446
-0.392612
-0.351909
-0.304606
-0.258093
-0.216107
-0.179702
-0.148908
-0.121643
-0.443335
-0.419937
-0.389493
-0.345347
-0.295285
-0.247076
-0.204207
-0.167456
-0.136643
-0.109493
-0.440431
-0.416659
-0.383577
-0.336207
-0.283776
-0.234254
-0.190809
-0.153949
-0.123284
-0.0963051
-0.434416
-0.410358
-0.374691
-0.324399
-0.270038
-0.219603
-0.175899
-0.139175
-0.108782
-0.0817955
-0.425078
-0.400827
-0.362707
-0.309872
-0.254051
-0.203113
-0.159473
-0.123151
-0.0932016
-0.0659858
-0.412256
-0.387916
-0.347544
-0.292611
-0.235824
-0.184792
-0.141537
-0.105896
-0.0766257
-0.0499001
-0.395841
-0.371527
-0.32917
-0.272635
-0.215387
-0.164663
-0.122134
-0.0874868
-0.0589194
-0.0333295
-0.375779
-0.35162
-0.3076
-0.250002
-0.192797
-0.142789
-0.10138
-0.0679008
-0.0402453
-0.0160666
-0.352071
-0.328212
-0.282902
-0.224807
-0.168139
-0.119282
-0.0792725
-0.0471931
-0.0207052
0.00190297
-0.324771
-0.301381
-0.255218
-0.19715
-0.141501
-0.0942026
-0.0558909
-0.0254474
-0.000369569
0.0204951
-0.293989
-0.271271
-0.224761
-0.167086
-0.113001
-0.0676464
-0.0313316
-0.00275331
0.0206916
0.0396008
-0.259896
-0.238099
-0.191638
-0.134745
-0.0827924
-0.0397448
-0.00570872
0.0207939
0.0424048
0.0591356
-0.22272
-0.202144
-0.155508
-0.100661
-0.0510712
-0.0106444
0.020852
0.0450933
0.0646857
0.0789956
-0.182675
-0.163624
-0.116947
-0.0648241
-0.0180311
0.0194939
0.0482267
0.0700504
0.0873819
0.0987952
-0.139971
-0.122185
-0.0770381
-0.0275013
0.016143
0.0505102
0.0763132
0.0955948
0.110215
0.117686
-0.0950062
-0.0787164
-0.0356283
0.0110303
0.0512441
0.0822444
0.105021
0.121656
0.13292
0.135213
-0.048236
-0.0334984
0.00710076
0.0505044
0.0870446
0.114519
0.134202
0.14804
0.15554
0.153405
5.72525e-05
0.0130345
0.0508414
0.0906494
0.123307
0.147131
0.163611
0.174355
0.17808
0.177052
0.0494659
0.0604844
0.0952452
0.131181
0.15979
0.179858
0.192984
0.200431
0.201159
0.200819
0.099561
0.108459
0.139953
0.171805
0.196242
0.212479
0.22215
0.22633
0.224492
0.223285
0.14991
0.156562
0.184604
0.212221
0.23241
0.244766
0.250935
0.251922
0.247657
0.244825
0.20008
0.204389
0.228841
0.25213
0.268038
0.276502
0.279172
0.277033
0.270334
0.265452
0.249635
0.251541
0.27231
0.291234
0.302874
0.307474
0.306683
0.301489
0.292347
0.285217
0.298147
0.29762
0.314666
0.329241
0.33667
0.337472
0.333291
0.325119
0.31355
0.30409
0.345198
0.34224
0.355574
0.365868
0.369186
0.366292
0.358821
0.347768
0.333822
0.322015
0.390381
0.385027
0.39471
0.400841
0.40019
0.393738
0.383104
0.369287
0.353047
0.338921
0.433309
0.425624
0.431766
0.433899
0.429461
0.41962
0.405979
0.38954
0.371113
0.35473
0.473611
0.463694
0.466453
0.464798
0.456789
0.443761
0.427294
0.408398
0.387913
0.369365
0.510943
0.49892
0.498497
0.493306
0.48198
0.465995
0.446907
0.425739
0.403344
0.382754
0.544985
0.531012
0.52765
0.519213
0.504854
0.486167
0.464688
0.441451
0.417313
0.394828
0.575448
0.559705
0.553685
0.542327
0.525247
0.504139
0.480518
0.455432
0.429733
0.405526
0.60207
0.584763
0.576398
0.562477
0.543014
0.519787
0.494293
0.467593
0.440526
0.414793
0.624626
0.60598
0.595615
0.579513
0.558028
0.533003
0.505922
0.477854
0.449626
0.422584
0.642923
0.623181
0.611184
0.593309
0.570182
0.543698
0.515326
0.486149
0.456976
0.42886
0.656803
0.636225
0.622985
0.603762
0.579389
0.551796
0.522445
0.492425
0.462532
0.433588
0.666147
0.645003
0.630924
0.610793
0.585581
0.557242
0.527231
0.496643
0.466264
0.43676
0.670874
0.649441
0.634938
0.614347
0.58871
0.559994
0.52965
0.498776
0.468159
0.43839
0.670941
0.649501
0.634992
0.614395
0.588752
0.56003
0.52968
0.498801
0.468182
0.438425
0.666346
0.645181
0.631085
0.610935
0.585703
0.557345
0.527314
0.496708
0.466315
0.436802
0.657124
0.636513
0.623245
0.60399
0.579583
0.551955
0.52257
0.492516
0.462593
0.43362
0.643353
0.623567
0.611532
0.59361
0.570434
0.5439
0.515478
0.486253
0.457038
0.428882
0.625148
0.606449
0.596035
0.579873
0.558324
0.533235
0.50609
0.477963
0.449684
0.422597
0.602665
0.585298
0.576875
0.562881
0.543341
0.520036
0.494469
0.467702
0.440578
0.414798
0.576094
0.560287
0.554201
0.542761
0.525592
0.504397
0.480696
0.455539
0.42978
0.405524
0.545663
0.531625
0.528192
0.519664
0.505208
0.486428
0.464864
0.441554
0.417358
0.394824
0.511634
0.499546
0.49905
0.493762
0.482335
0.466254
0.44708
0.42584
0.403388
0.382749
0.474297
0.464318
0.467004
0.465251
0.45714
0.444016
0.427463
0.408498
0.387958
0.369362
0.433975
0.426234
0.432306
0.434342
0.429802
0.419868
0.406145
0.389641
0.371161
0.354729
0.391016
0.385612
0.39523
0.401268
0.40052
0.393979
0.383268
0.36939
0.353099
0.338923
0.345791
0.342791
0.356067
0.366275
0.369502
0.366525
0.358983
0.347873
0.333879
0.322021
0.298692
0.298131
0.315128
0.329626
0.336972
0.337697
0.333452
0.325228
0.313613
0.304098
0.250127
0.252008
0.272737
0.291594
0.30316
0.307692
0.306843
0.301603
0.292416
0.285227
0.200517
0.20481
0.229231
0.252465
0.268309
0.276713
0.279331
0.277152
0.270413
0.265462
0.150293
0.156935
0.184957
0.21253
0.232666
0.24497
0.251094
0.252045
0.247748
0.24484
0.0998887
0.108785
0.140269
0.172087
0.196483
0.212676
0.222308
0.226459
0.224602
0.223317
0.0497412
0.0607639
0.0955252
0.131439
0.160015
0.180051
0.193142
0.200565
0.201294
0.200899
0.000283352
0.01327
0.0510866
0.0908831
0.123519
0.147317
0.163771
0.174491
0.178237
0.17725
-0.0480554
-0.0333043
0.00731327
0.0507149
0.087242
0.1147
0.134365
0.148184
0.155716
0.153748
-0.0948667
-0.0785608
-0.0354459
0.0112186
0.0514279
0.0824198
0.105186
0.121809
0.133094
0.135518
-0.139869
-0.122065
-0.076883
-0.0273341
0.0163131
0.0506781
0.0764766
0.0957484
0.110373
0.117909
-0.182605
-0.163537
-0.116817
-0.0646774
-0.0178746
0.0196528
0.048384
0.0701992
0.0875251
0.0989676
-0.222677
-0.202079
-0.155407
-0.100534
-0.050928
-0.0104953
0.0210013
0.0452352
0.0648191
0.0791441
-0.259876
-0.238056
-0.191558
-0.134636
-0.082662
-0.0396056
-0.00556779
0.0209289
0.042531
0.0592694
-0.293989
-0.271248
-0.2247
-0.166991
-0.112882
-0.0675167
-0.0311988
-0.00262495
0.0208114
0.0397227
-0.324787
-0.301373
-0.255173
-0.197069
-0.141394
-0.0940821
-0.0557658
-0.0253255
-0.000255686
0.0206081
-0.352098
-0.328217
-0.28287
-0.224738
-0.168042
-0.11917
-0.0791547
-0.0470773
-0.0205965
0.00200965
-0.375815
-0.351635
-0.307579
-0.249943
-0.19271
-0.142685
-0.101268
-0.0677905
-0.0401409
-0.0159641
-0.395883
-0.371548
-0.329157
-0.272585
-0.215307
-0.164566
-0.122029
-0.0873812
-0.0588187
-0.0332299
-0.4123
-0.38794
-0.347537
-0.292568
-0.235751
-0.184701
-0.141438
-0.105795
-0.076528
-0.0498027
-0.425122
-0.400852
-0.362704
-0.309835
-0.253984
-0.203027
-0.159378
-0.123054
-0.0931064
-0.0658909
-0.434457
-0.410382
-0.374689
-0.324365
-0.269975
-0.219521
-0.175807
-0.139081
-0.108689
-0.0817046
-0.440467
-0.41668
-0.383575
-0.336175
-0.283717
-0.234176
-0.190721
-0.153857
-0.123193
-0.0962165
-0.443365
-0.419953
-0.389489
-0.345316
-0.295228
-0.247001
-0.204122
-0.167366
-0.136554
-0.109406
-0.443404
-0.420455
-0.392604
-0.351877
-0.30455
-0.258019
-0.216023
-0.179613
-0.14882
-0.121557
-0.440874
-0.418478
-0.393142
-0.355986
-0.311752
-0.267274
-0.226457
-0.190629
-0.160056
-0.132856
-0.436092
-0.414342
-0.391367
-0.357808
-0.316928
-0.274827
-0.235474
-0.200458
-0.170301
-0.143359
-0.429393
-0.408383
-0.387577
-0.357541
-0.320196
-0.280755
-0.243135
-0.209152
-0.179586
-0.153077
-0.421121
-0.400945
-0.382096
-0.355419
-0.321696
-0.285149
-0.249508
-0.216767
-0.187948
-0.162024
-0.411619
-0.392366
-0.375262
-0.351699
-0.321591
-0.288112
-0.254666
-0.223361
-0.195434
-0.170231
-0.401215
-0.382969
-0.367411
-0.346661
-0.320064
-0.289757
-0.258691
-0.229001
-0.202098
-0.177733
-0.390219
-0.373057
-0.358865
-0.340598
-0.317316
-0.29021
-0.261666
-0.233754
-0.207996
-0.184571
-0.378914
-0.3629
-0.349922
-0.333804
-0.313562
-0.289606
-0.26368
-0.237689
-0.213187
-0.190785
-0.367549
-0.352734
-0.340843
-0.326563
-0.309029
-0.288092
-0.264826
-0.240872
-0.217729
-0.196422
-0.356336
-0.342758
-0.331849
-0.319135
-0.303949
-0.285822
-0.265198
-0.24337
-0.221679
-0.20153
-0.345449
-0.333128
-0.323118
-0.311743
-0.298549
-0.282959
-0.264898
-0.245248
-0.22509
-0.206158
-0.335027
-0.323963
-0.314789
-0.304566
-0.29304
-0.279674
-0.264028
-0.246569
-0.228009
-0.210356
-0.325169
-0.315345
-0.30696
-0.297737
-0.287606
-0.276137
-0.262701
-0.247398
-0.230478
-0.214173
-0.315947
-0.307324
-0.299693
-0.29135
-0.28239
-0.272508
-0.261033
-0.247801
-0.232533
-0.21766
-0.307403
-0.299924
-0.293019
-0.285462
-0.277495
-0.268932
-0.259145
-0.24785
-0.234199
-0.220868
-0.299554
-0.293147
-0.286942
-0.280101
-0.272986
-0.265523
-0.257155
-0.247627
-0.235495
-0.223856
-0.292399
-0.286979
-0.281447
-0.275271
-0.268896
-0.262358
-0.255169
-0.247217
-0.236434
-0.226687
-0.28592
-0.281395
-0.276505
-0.270955
-0.265236
-0.259485
-0.253273
-0.246712
-0.237022
-0.229438
-0.280086
-0.27636
-0.272076
-0.267121
-0.261999
-0.256926
-0.25152
-0.246191
-0.237267
-0.23218
-0.274855
-0.271834
-0.268118
-0.263729
-0.259162
-0.254684
-0.24994
-0.245711
-0.237187
-0.234986
-0.270178
-0.26777
-0.26458
-0.260731
-0.256689
-0.252741
-0.248547
-0.245297
-0.236856
-0.237755
-0.266001
-0.264121
-0.261415
-0.258075
-0.254532
-0.251064
-0.247346
-0.24491
-0.236383
-0.240585
-0.262265
-0.260837
-0.258572
-0.25571
-0.252638
-0.249609
-0.246332
-0.244394
-0.236135
-0.241562
-0.258909
-0.257874
-0.256004
-0.253584
-0.250952
-0.248328
-0.245466
-0.243636
-0.23664
-0.230494
-0.255881
-0.255183
-0.253666
-0.251652
-0.249425
-0.247173
-0.244695
-0.242753
-0.237697
-0.226086
-0.253132
-0.252722
-0.251519
-0.249872
-0.248015
-0.246103
-0.243976
-0.241947
-0.238646
-0.226024
-0.250612
-0.250451
-0.249533
-0.248214
-0.246689
-0.245087
-0.243272
-0.24127
-0.239103
-0.227026
-0.248284
-0.248344
-0.247681
-0.246651
-0.245425
-0.244102
-0.242566
-0.240696
-0.239161
-0.228322
-0.246116
-0.246378
-0.245937
-0.245168
-0.244208
-0.243139
-0.241857
-0.240187
-0.239025
-0.229804
-0.244085
-0.244534
-0.244292
-0.243752
-0.243032
-0.242194
-0.241152
-0.239713
-0.238821
-0.23129
-0.242174
-0.242801
-0.242734
-0.242399
-0.241894
-0.241268
-0.240455
-0.239239
-0.23863
-0.232604
-0.240373
-0.241169
-0.24126
-0.241107
-0.240794
-0.240364
-0.239754
-0.238759
-0.238499
-0.233622
-0.238678
-0.239636
-0.239869
-0.239877
-0.239737
-0.239484
-0.239068
-0.238383
-0.238314
-0.234324
-0.237089
-0.238204
-0.238563
-0.238714
-0.238727
-0.238633
-0.238396
-0.237972
-0.237804
-0.23511
-0.235613
-0.236877
-0.237349
-0.237625
-0.237773
-0.237819
-0.237743
-0.237532
-0.237379
-0.235707
-0.234256
-0.235661
-0.236234
-0.236619
-0.236884
-0.237053
-0.237118
-0.23708
-0.237011
-0.236009
-0.23303
-0.234566
-0.235226
-0.235706
-0.236071
-0.236345
-0.236529
-0.236632
-0.236662
-0.236115
-0.231947
-0.233601
-0.234337
-0.234896
-0.235345
-0.235707
-0.23599
-0.236204
-0.236334
-0.236105
-0.231019
-0.232777
-0.233577
-0.234201
-0.234718
-0.235151
-0.235514
-0.235815
-0.236035
-0.23603
-0.23026
-0.232104
-0.232956
-0.233631
-0.234202
-0.23469
-0.235115
-0.235482
-0.235775
-0.235927
-0.229681
-0.231591
-0.232481
-0.233196
-0.233805
-0.234335
-0.234805
-0.235219
-0.235568
-0.235827
-0.229289
-0.231246
-0.232162
-0.232902
-0.233538
-0.234094
-0.234593
-0.235039
-0.235425
-0.23575
-0.229093
-0.231073
-0.232002
-0.232755
-0.233404
-0.233974
-0.234487
-0.234949
-0.235354
-0.235711
-0.236147
-0.23644
-0.236734
-0.237023
-0.237304
-0.237575
-0.237829
-0.23806
-0.238259
-0.238416
-0.238519
-0.238557
-0.238518
-0.238387
-0.238151
-0.237795
-0.237298
-0.236642
-0.235801
-0.234745
-0.233436
-0.231827
-0.229859
-0.227457
-0.224521
-0.220938
-0.216554
-0.211222
-0.204686
-0.196848
-0.187294
-0.176195
-0.16282
-0.148036
-0.130746
-0.112477
-0.0930436
-0.0714889
-0.0549632
-0.0290466
-0.0234824
0.00760495
-0.236236
-0.236513
-0.236799
-0.237084
-0.23736
-0.237627
-0.237878
-0.238106
-0.2383
-0.238452
-0.238549
-0.23858
-0.238533
-0.238395
-0.23815
-0.237784
-0.23728
-0.236616
-0.235768
-0.234708
-0.233399
-0.231795
-0.229838
-0.227452
-0.224539
-0.220988
-0.216642
-0.211351
-0.204847
-0.197054
-0.187569
-0.176504
-0.163143
-0.14837
-0.131065
-0.112778
-0.0932996
-0.0717161
-0.0551604
-0.0291674
-0.0235555
0.00749916
-0.236405
-0.236649
-0.236921
-0.237199
-0.237469
-0.237731
-0.237977
-0.2382
-0.23839
-0.238536
-0.238627
-0.238651
-0.238597
-0.23845
-0.238197
-0.237822
-0.23731
-0.236639
-0.235787
-0.234725
-0.233418
-0.231822
-0.229878
-0.227514
-0.224631
-0.22112
-0.21682
-0.21158
-0.205094
-0.197427
-0.187952
-0.176945
-0.163605
-0.148852
-0.131528
-0.11323
-0.0936947
-0.0720865
-0.055518
-0.0294019
-0.0237364
0.00725231
-0.236645
-0.236842
-0.237094
-0.237361
-0.237623
-0.237879
-0.23812
-0.238338
-0.238523
-0.238663
-0.238748
-0.238765
-0.238703
-0.238548
-0.238286
-0.237904
-0.237384
-0.236707
-0.235852
-0.23479
-0.233488
-0.231902
-0.229976
-0.227639
-0.224791
-0.221326
-0.217077
-0.211895
-0.205572
-0.197877
-0.188457
-0.177507
-0.164189
-0.149467
-0.132119
-0.113816
-0.0942166
-0.0725801
-0.0558925
-0.0298664
-0.0240145
0.00687321
-0.236944
-0.237079
-0.237305
-0.237562
-0.237814
-0.238062
-0.238298
-0.238511
-0.238691
-0.238825
-0.238904
-0.238914
-0.238845
-0.238682
-0.238412
-0.238022
-0.237496
-0.236814
-0.235957
-0.234896
-0.233601
-0.232028
-0.230122
-0.227815
-0.225006
-0.221591
-0.217396
-0.212246
-0.205998
-0.198414
-0.189055
-0.178171
-0.164876
-0.150191
-0.132819
-0.114515
-0.094852
-0.0731786
-0.0563989
-0.0304209
-0.0243713
0.00637411
-0.23729
-0.237347
-0.237543
-0.237789
-0.23803
-0.238272
-0.238502
-0.23871
-0.238884
-0.239013
-0.239086
-0.23909
-0.239013
-0.238842
-0.238566
-0.238169
-0.237637
-0.236951
-0.236093
-0.235035
-0.233748
-0.232189
-0.230306
-0.228031
-0.225263
-0.221902
-0.217764
-0.21277
-0.206518
-0.199017
-0.18972
-0.178909
-0.16564
-0.150999
-0.133604
-0.115304
-0.0955828
-0.0738883
-0.0569909
-0.031053
-0.0247847
0.00576983
-0.237671
-0.237628
-0.237794
-0.238029
-0.23826
-0.238494
-0.238719
-0.238922
-0.239092
-0.239216
-0.239283
-0.239281
-0.239197
-0.23902
-0.238737
-0.238334
-0.237797
-0.237109
-0.23625
-0.235196
-0.233918
-0.232375
-0.230515
-0.228274
-0.225548
-0.222241
-0.218146
-0.213224
-0.207072
-0.199661
-0.190427
-0.179695
-0.166455
-0.151866
-0.134446
-0.116157
-0.0963692
-0.0746725
-0.0576689
-0.0317595
-0.0252319
0.00507692
-0.238087
-0.237907
-0.238042
-0.23827
-0.23849
-0.238717
-0.238937
-0.239136
-0.239301
-0.239421
-0.239483
-0.239475
-0.239386
-0.239204
-0.238915
-0.238508
-0.237967
-0.237277
-0.236419
-0.23537
-0.234101
-0.232575
-0.230738
-0.228531
-0.225847
-0.222593
-0.2186
-0.213722
-0.207642
-0.200322
-0.191153
-0.180505
-0.167293
-0.152768
-0.13532
-0.117047
-0.0972128
-0.0754928
-0.0584092
-0.0325274
-0.0256914
0.00431293
-0.238579
-0.238166
-0.238274
-0.238498
-0.238708
-0.238927
-0.239143
-0.239338
-0.2395
-0.239616
-0.239674
-0.239662
-0.239569
-0.239382
-0.23909
-0.238679
-0.238135
-0.237445
-0.236589
-0.235545
-0.234286
-0.232776
-0.230963
-0.22879
-0.226146
-0.22293
-0.219027
-0.214217
-0.208207
-0.200978
-0.191873
-0.181319
-0.168124
-0.153661
-0.136218
-0.11795
-0.0980913
-0.0763356
-0.0591888
-0.033342
-0.0261447
0.00349549
-0.239204
-0.23839
-0.238478
-0.238703
-0.238902
-0.239114
-0.239325
-0.239516
-0.239675
-0.239788
-0.239844
-0.239829
-0.239733
-0.239544
-0.239249
-0.238837
-0.238293
-0.237603
-0.236749
-0.235711
-0.234463
-0.232969
-0.231177
-0.229038
-0.226427
-0.223304
-0.219418
-0.21469
-0.208749
-0.201607
-0.192566
-0.18209
-0.168949
-0.154537
-0.137105
-0.118845
-0.0989829
-0.0771864
-0.059988
-0.0341899
-0.026577
0.00264161
-0.239579
-0.238679
-0.238656
-0.238873
-0.239064
-0.239266
-0.239472
-0.239656
-0.239814
-0.239926
-0.23998
-0.239964
-0.239868
-0.239678
-0.239383
-0.238971
-0.238428
-0.23774
-0.236891
-0.235859
-0.234621
-0.233143
-0.231372
-0.229261
-0.226644
-0.223627
-0.219781
-0.215125
-0.209248
-0.202192
-0.193215
-0.182821
-0.169726
-0.155373
-0.137963
-0.11971
-0.0998693
-0.07803
-0.0607888
-0.035059
-0.026977
0.00176702
-0.239849
-0.239011
-0.238798
-0.238999
-0.239183
-0.239369
-0.239568
-0.239752
-0.239906
-0.240016
-0.240071
-0.240056
-0.239961
-0.239774
-0.239481
-0.239072
-0.238532
-0.237848
-0.237004
-0.235979
-0.234752
-0.233289
-0.231538
-0.229449
-0.226983
-0.22389
-0.220101
-0.21551
-0.209693
-0.202717
-0.193802
-0.18349
-0.170441
-0.156149
-0.138777
-0.120529
-0.100734
-0.0788531
-0.0615745
-0.0359381
-0.027337
0.000885732
-0.240165
-0.239336
-0.238897
-0.23908
-0.239252
-0.239416
-0.239605
-0.239784
-0.239936
-0.240046
-0.240103
-0.240093
-0.240003
-0.23982
-0.239533
-0.239129
-0.238595
-0.237917
-0.23708
-0.236062
-0.234846
-0.233398
-0.231656
-0.229599
-0.227126
-0.224106
-0.220365
-0.215833
-0.210071
-0.203169
-0.194312
-0.184078
-0.171083
-0.156849
-0.139533
-0.121289
-0.101562
-0.0796448
-0.0623308
-0.036817
-0.027652
9.74261e-06
-0.240511
-0.23967
-0.238961
-0.239114
-0.239262
-0.239396
-0.239569
-0.239742
-0.239891
-0.240004
-0.240066
-0.240062
-0.239979
-0.239805
-0.239527
-0.239131
-0.238605
-0.237936
-0.237107
-0.236098
-0.234894
-0.233456
-0.231687
-0.229736
-0.227242
-0.224265
-0.220561
-0.216082
-0.210369
-0.203535
-0.194734
-0.184575
-0.17164
-0.157461
-0.140219
-0.121976
-0.10234
-0.0803956
-0.0630452
-0.0376862
-0.0279195
-0.000851056
-0.24087
-0.240022
-0.238995
-0.239096
-0.239203
-0.239292
-0.239445
-0.23961
-0.239757
-0.239874
-0.239944
-0.23995
-0.23988
-0.239718
-0.239452
-0.239068
-0.238554
-0.237895
-0.237077
-0.236078
-0.234887
-0.233458
-0.231833
-0.229756
-0.227297
-0.224354
-0.220681
-0.216249
-0.210578
-0.203805
-0.195058
-0.184968
-0.172099
-0.157972
-0.140824
-0.122582
-0.103055
-0.0810971
-0.0637068
-0.0385365
-0.028138
-0.00168873
-0.241236
-0.240367
-0.238986
-0.239013
-0.239054
-0.239083
-0.239213
-0.23937
-0.239518
-0.239641
-0.239723
-0.239745
-0.23969
-0.239545
-0.239295
-0.238928
-0.238428
-0.237783
-0.236977
-0.235989
-0.234809
-0.233403
-0.231735
-0.229714
-0.22728
-0.224362
-0.220716
-0.216322
-0.210688
-0.20397
-0.195274
-0.185247
-0.172453
-0.158372
-0.141335
-0.123095
-0.103696
-0.0817405
-0.0643055
-0.0393587
-0.0283076
-0.00249695
-0.24155
-0.240591
-0.238884
-0.238841
-0.238789
-0.23875
-0.238857
-0.239009
-0.23916
-0.239296
-0.239394
-0.239434
-0.239401
-0.239276
-0.239047
-0.238699
-0.238218
-0.23759
-0.236798
-0.23582
-0.234636
-0.233293
-0.231595
-0.2296
-0.227177
-0.224281
-0.220654
-0.216293
-0.210691
-0.204021
-0.195375
-0.185404
-0.172692
-0.158655
-0.141748
-0.123513
-0.104258
-0.0823227
-0.0648404
-0.0401463
-0.0284335
-0.00327153
-0.241739
-0.240559
-0.238655
-0.238573
-0.238396
-0.238279
-0.238363
-0.238513
-0.238672
-0.238822
-0.23894
-0.239004
-0.238995
-0.238896
-0.238692
-0.238369
-0.23791
-0.237303
-0.236529
-0.235569
-0.234453
-0.233043
-0.231372
-0.229393
-0.22698
-0.224102
-0.220491
-0.216159
-0.210585
-0.20396
-0.195366
-0.185452
-0.172834
-0.158841
-0.142084
-0.123859
-0.104763
-0.0828592
-0.0653303
-0.0409031
-0.0285293
-0.00401312
-0.242612
-0.240241
-0.238247
-0.23812
-0.237772
-0.23757
-0.237635
-0.23779
-0.237965
-0.238139
-0.238287
-0.238385
-0.238411
-0.238348
-0.238179
-0.23789
-0.237464
-0.236887
-0.236137
-0.235199
-0.234101
-0.232696
-0.231043
-0.22908
-0.22668
-0.22382
-0.220226
-0.215923
-0.21038
-0.2038
-0.195265
-0.185407
-0.172898
-0.158949
-0.142359
-0.124144
-0.105218
-0.0833577
-0.0657715
-0.0416339
-0.0285886
-0.004728
-0.242437
-0.237851
-0.236846
-0.236968
-0.236555
-0.236368
-0.23649
-0.236707
-0.236942
-0.237173
-0.237378
-0.237533
-0.237615
-0.237605
-0.237485
-0.237242
-0.236858
-0.23632
-0.235596
-0.234598
-0.233585
-0.232232
-0.230601
-0.228655
-0.226264
-0.223414
-0.219827
-0.215534
-0.210006
-0.203442
-0.194953
-0.185117
-0.172709
-0.15878
-0.142356
-0.12417
-0.105397
-0.0836712
-0.0659807
-0.0422765
-0.0285113
-0.00541167
-0.227101
-0.228994
-0.233657
-0.235144
-0.23504
-0.234994
-0.235223
-0.235534
-0.235842
-0.236131
-0.236391
-0.236598
-0.236729
-0.236765
-0.236689
-0.236486
-0.236143
-0.235654
-0.235021
-0.234238
-0.232969
-0.231581
-0.229933
-0.227966
-0.22555
-0.222665
-0.219045
-0.2147
-0.209144
-0.202516
-0.194037
-0.184144
-0.171835
-0.15789
-0.141672
-0.123591
-0.105001
-0.0836589
-0.0657755
-0.0429163
-0.0281672
-0.00623619
-0.226071
-0.2262
-0.230385
-0.23202
-0.231973
-0.231947
-0.232291
-0.232771
-0.23323
-0.233643
-0.234009
-0.234313
-0.234531
-0.234644
-0.234634
-0.234488
-0.234187
-0.233717
-0.233046
-0.232127
-0.231055
-0.229714
-0.228058
-0.22607
-0.223616
-0.220676
-0.216994
-0.212571
-0.20696
-0.200258
-0.191792
-0.181869
-0.169725
-0.155854
-0.139974
-0.122151
-0.103908
-0.0831377
-0.0651927
-0.0433435
-0.027697
-0.00701542
-0.222668
-0.222694
-0.225359
-0.226888
-0.227242
-0.227509
-0.228071
-0.228767
-0.229428
-0.230017
-0.230539
-0.230985
-0.231333
-0.231564
-0.231657
-0.231602
-0.231378
-0.230972
-0.230361
-0.22954
-0.228457
-0.227116
-0.225449
-0.223437
-0.220942
-0.217945
-0.214198
-0.209696
-0.204032
-0.197264
-0.188825
-0.178907
-0.166951
-0.153227
-0.137712
-0.120256
-0.102391
-0.0822885
-0.0643614
-0.043512
-0.0272059
-0.00759856
-0.216674
-0.217603
-0.218998
-0.220142
-0.220894
-0.22161
-0.22248
-0.223424
-0.224319
-0.225129
-0.225854
-0.226488
-0.227011
-0.227403
-0.227643
-0.227719
-0.227613
-0.227312
-0.226795
-0.226048
-0.225015
-0.223698
-0.222041
-0.220023
-0.217505
-0.214464
-0.21067
-0.206105
-0.20041
-0.193601
-0.185218
-0.17535
-0.163611
-0.150111
-0.134981
-0.117988
-0.100523
-0.0811619
-0.0633274
-0.0434473
-0.0267015
-0.00800887
-0.208192
-0.210563
-0.211481
-0.212248
-0.213233
-0.214382
-0.215601
-0.216807
-0.217943
-0.218988
-0.219939
-0.220788
-0.221513
-0.222093
-0.22251
-0.222748
-0.22279
-0.222622
-0.222219
-0.221568
-0.220627
-0.219365
-0.217741
-0.215737
-0.213219
-0.210158
-0.206343
-0.201743
-0.196048
-0.189239
-0.180948
-0.17119
-0.159704
-0.146508
-0.131794
-0.115352
-0.0983263
-0.0797522
-0.0621092
-0.043145
-0.0261812
-0.0082656
-0.197939
-0.201787
-0.202859
-0.203486
-0.20462
-0.206128
-0.207695
-0.209174
-0.210543
-0.211812
-0.212984
-0.214045
-0.214973
-0.215747
-0.216347
-0.216757
-0.216957
-0.216934
-0.216661
-0.21612
-0.215272
-0.214116
-0.21255
-0.21058
-0.208088
-0.205033
-0.201228
-0.196628
-0.190971
-0.184211
-0.176053
-0.166471
-0.155279
-0.142463
-0.128203
-0.112379
-0.095844
-0.0780762
-0.0607328
-0.0426196
-0.0256428
-0.00839335
-0.186938
-0.191843
-0.193375
-0.194133
-0.195429
-0.197221
-0.199099
-0.200844
-0.202435
-0.203909
-0.205279
-0.206534
-0.207648
-0.208601
-0.209372
-0.209945
-0.210299
-0.210419
-0.210277
-0.209857
-0.209124
-0.208062
-0.206571
-0.204655
-0.202209
-0.199187
-0.195422
-0.19086
-0.185278
-0.178617
-0.170634
-0.161289
-0.15043
-0.138057
-0.124289
-0.109126
-0.0931335
-0.0761691
-0.0592267
-0.0418994
-0.0250826
-0.00841754
-0.175744
-0.181293
-0.18337
-0.184441
-0.185948
-0.187972
-0.19011
-0.192099
-0.193899
-0.195558
-0.197103
-0.198527
-0.199806
-0.200917
-0.201839
-0.202557
-0.20305
-0.203302
-0.203283
-0.202978
-0.202348
-0.201376
-0.199977
-0.198132
-0.195746
-0.192778
-0.189076
-0.184587
-0.179113
-0.172595
-0.164824
-0.155764
-0.145274
-0.133385
-0.120142
-0.10566
-0.0902545
-0.0740747
-0.0576181
-0.0410185
-0.024497
-0.00836142
-0.164679
-0.17058
-0.173155
-0.17461
-0.176364
-0.178592
-0.180943
-0.183145
-0.185138
-0.186968
-0.188669
-0.190242
-0.191665
-0.192914
-0.193969
-0.194815
-0.19543
-0.195799
-0.195891
-0.19569
-0.195152
-0.194259
-0.192961
-0.191196
-0.188881
-0.185981
-0.182363
-0.177972
-0.172633
-0.166293
-0.158762
-0.150022
-0.139926
-0.128545
-0.115849
-0.102048
-0.0872618
-0.0718385
-0.0559305
-0.0400114
-0.0238835
-0.00824438
-0.153951
-0.159989
-0.16296
-0.16479
-0.1668
-0.169212
-0.17174
-0.174125
-0.176294
-0.17828
-0.180124
-0.18183
-0.183379
-0.184751
-0.185923
-0.186882
-0.187606
-0.188079
-0.188271
-0.188164
-0.187716
-0.186911
-0.185691
-0.184007
-0.181772
-0.178955
-0.175436
-0.171165
-0.165981
-0.159843
-0.152572
-0.144174
-0.134487
-0.123621
-0.111484
-0.0983505
-0.0842006
-0.0695021
-0.0541836
-0.0389088
-0.0232418
-0.00808198
-0.143635
-0.14967
-0.152934
-0.155092
-0.15734
-0.159919
-0.162596
-0.165134
-0.167457
-0.169586
-0.171559
-0.173385
-0.175049
-0.17653
-0.177808
-0.178869
-0.17969
-0.180258
-0.180541
-0.180523
-0.180162
-0.179438
-0.178294
-0.176692
-0.174546
-0.171824
-0.168415
-0.164279
-0.159265
-0.153347
-0.146351
-0.138302
-0.129033
-0.118677
-0.107101
-0.0946142
-0.0811051
-0.0670996
-0.0523931
-0.0377356
-0.022573
-0.00788627
-0.133761
-0.139709
-0.143175
-0.145599
-0.148052
-0.150773
-0.153571
-0.156237
-0.15869
-0.160945
-0.163034
-0.164968
-0.166734
-0.168315
-0.169689
-0.170843
-0.171754
-0.172409
-0.172779
-0.172844
-0.172566
-0.171922
-0.170857
-0.169339
-0.167287
-0.16467
-0.161383
-0.157394
-0.152562
-0.146873
-0.140161
-0.132465
-0.123615
-0.113759
-0.102737
-0.0908729
-0.0779994
-0.0646574
-0.0505711
-0.0365111
-0.0218793
-0.00766638
-0.124352
-0.130155
-0.133746
-0.136372
-0.138987
-0.141821
-0.144714
-0.14748
-0.150039
-0.152401
-0.154591
-0.15662
-0.158477
-0.160147
-0.161609
-0.162847
-0.163843
-0.16458
-0.165031
-0.165176
-0.164979
-0.164415
-0.163433
-0.162004
-0.160052
-0.157547
-0.15439
-0.150558
-0.145918
-0.140465
-0.134042