/*--------------------------------*- C++ -*----------------------------------*\
  =========                 |
  \\      /  F ield         | OpenFOAM: The Open Source CFD Toolbox
   \\    /   O peration     | Website:  https://openfoam.org
    \\  /    A nd           | Version:  7
     \\/     M anipulation  |
\*---------------------------------------------------------------------------*/
FoamFile
{
    version     2.0;
    format      ascii;
    class       volVectorField;
    location    "25";
    object      U;
}
// * * * * * * * * * * * * * * * * * * * * * * * * * * * * * * * * * * * * * //

dimensions      [0 1 -1 0 0 0 0];

internalField   nonuniform List<vector> 
12772
(
(-0.00122172 0.00104783 3.17851e-21)
(-0.0067871 0.00239584 1.11489e-20)
(-0.0172059 0.00318094 -4.14638e-21)
(-0.0295455 0.00354984 2.92965e-21)
(-0.0427198 0.00361176 -2.13332e-20)
(-0.0558658 0.00346859 -9.16239e-21)
(-0.0683944 0.00321298 -1.95131e-21)
(-0.0800551 0.00292922 -2.8684e-20)
(-0.0908684 0.00268892 3.73163e-21)
(-0.10106 0.00255787 1.75872e-20)
(-0.00137319 0.00314544 -2.91007e-20)
(-0.00709603 0.0072248 -5.97534e-21)
(-0.0175382 0.00963392 1.77724e-20)
(-0.0298112 0.0107999 -6.65427e-20)
(-0.0428459 0.0110437 -8.2671e-21)
(-0.0557899 0.0106685 1.22272e-20)
(-0.0680583 0.00995355 4.38214e-21)
(-0.0794021 0.00915539 7.94981e-20)
(-0.0898385 0.00849407 -5.74694e-20)
(-0.0995557 0.00817255 9.484e-21)
(-0.00167247 0.00519181 5.59329e-20)
(-0.00770714 0.0119446 -7.58852e-21)
(-0.0181954 0.0159488 3.04547e-20)
(-0.0303349 0.0178983 6.82019e-20)
(-0.0430898 0.018318 1.39442e-19)
(-0.0556289 0.0177064 -1.00753e-19)
(-0.0673752 0.0165248 2.64342e-22)
(-0.078082 0.0152007 -7.74092e-20)
(-0.0877614 0.014107 9.83748e-20)
(-0.0965183 0.0135902 -9.33492e-20)
(-0.00211221 0.00715465 6.33091e-21)
(-0.0086072 0.0164856 -4.55629e-21)
(-0.0191642 0.0220361 3.41852e-20)
(-0.0311053 0.0247461 -4.91133e-20)
(-0.0434425 0.0253316 -3.7235e-20)
(-0.0553754 0.024476 1.77261e-19)
(-0.0663378 0.0228151 -5.43446e-20)
(-0.0760854 0.0209454 -1.56067e-19)
(-0.084627 0.0193998 -5.13593e-20)
(-0.0919205 0.0186782 6.92316e-20)
(-0.00268191 0.00900482 1.06978e-20)
(-0.00977689 0.0207832 4.45302e-20)
(-0.020425 0.0278118 -9.4944e-20)
(-0.0321045 0.0312488 1.11106e-19)
(-0.0438882 0.0319848 7.32495e-20)
(-0.0550153 0.0308743 -2.7309e-19)
(-0.0649314 0.0287164 2.31748e-19)
(-0.0733926 0.026273 1.39303e-19)
(-0.080414 0.0242471 4.75694e-20)
(-0.0857078 0.0233046 -1.53385e-20)
(-0.00336847 0.0107173 -7.75615e-20)
(-0.0111915 0.02478 -3.47539e-20)
(-0.0219515 0.0331986 2.98564e-20)
(-0.0333074 0.037318 -2.46501e-19)
(-0.0444031 0.038184 1.19689e-19)
(-0.0545244 0.0368041 -3.04144e-20)
(-0.0631287 0.0341264 1.68848e-21)
(-0.0699662 0.0310722 2.67532e-20)
(-0.0750814 0.0285273 -5.94926e-20)
(-0.0777822 0.0273385 -3.31935e-20)
(-0.00415689 0.012272 1.70538e-19)
(-0.0128216 0.0284267 -1.92558e-20)
(-0.0237106 0.0381277 1.17318e-19)
(-0.0346799 0.0428731 4.01217e-20)
(-0.0449517 0.0438421 -3.44413e-20)
(-0.0538638 0.0421752 -2.71958e-20)
(-0.060883 0.0389505 -1.88628e-20)
(-0.06574 0.0352399 -5.2051e-20)
(-0.0685575 0.0321253 2.83029e-20)
(-0.0679783 0.0306498 2.19206e-19)
(-0.00503102 0.0136537 -1.81286e-19)
(-0.0146339 0.0316829 1.1675e-19)
(-0.0256623 0.0425395 -2.1491e-19)
(-0.0361774 0.0478415 2.51244e-20)
(-0.0454831 0.0488804 6.05327e-20)
(-0.0529731 0.0469065 2.22382e-19)
(-0.0581184 0.0431054 -1.0323e-19)
(-0.0606048 0.0386865 1.73027e-19)
(-0.0607254 0.0349382 -1.1705e-19)
(-0.0560351 0.0331166 -1.51335e-19)
(-0.00597428 0.014853 1.49865e-19)
(-0.016592 0.0345178 -7.17532e-20)
(-0.0277594 0.0463839 -1.76164e-19)
(-0.0377422 0.0521601 1.62165e-20)
(-0.0459265 0.0532293 -3.02315e-19)
(-0.0517626 0.0509279 -1.82477e-20)
(-0.0547177 0.046522 1.34106e-20)
(-0.0543875 0.0413419 -8.66429e-20)
(-0.0514002 0.0368796 2.0053e-19)
(-0.0415848 0.0346761 8.00965e-20)
(-0.00697037 0.0158652 -1.16944e-19)
(-0.0186566 0.0369092 -1.79648e-19)
(-0.0299462 0.0496206 4.54297e-19)
(-0.0393009 0.0557749 1.66689e-19)
(-0.046185 0.056829 5.36158e-20)
(-0.0501028 0.0541816 1.165e-19)
(-0.0505074 0.0491489 -1.3104e-19)
(-0.0468251 0.0431557 2.06788e-20)
(-0.0402464 0.0378222 -3.28117e-19)
(-0.0242205 0.0354486 3.03207e-20)
(-0.00800377 0.0166901 3.1621e-20)
(-0.0207865 0.0388435 8.79882e-20)
(-0.0321581 0.0522183 -5.95008e-19)
(-0.0407612 0.0586411 -8.27791e-20)
(-0.04613 0.0596297 8.17359e-20)
(-0.0478147 0.0566242 -3.80892e-19)
(-0.0452463 0.0509592 -1.21075e-20)
(-0.0375809 0.0441116 -8.57224e-21)
(-0.0265913 0.0374892 -1.20816e-19)
(-0.0034541 0.0356141 1.81168e-20)
(-0.00906014 0.0173315 -3.20713e-20)
(-0.0229379 0.040314 1.57293e-19)
(-0.03432 0.054154 3.94387e-19)
(-0.0420083 0.0607221 -1.90294e-19)
(-0.0455934 0.0615915 1.44077e-20)
(-0.0446557 0.0582284 -1.44998e-19)
(-0.0386003 0.0519611 -3.66928e-20)
(-0.0263457 0.0443006 3.43242e-19)
(-0.00969006 0.0361042 2.78273e-19)
(0.0221098 0.0350309 -3.48746e-20)
(-0.0101265 0.0177961 3.44824e-20)
(-0.0250645 0.0413199 6.71337e-20)
(-0.0363441 0.0554117 -3.52369e-19)
(-0.0429005 0.0619894 1.38469e-19)
(-0.0443601 0.062683 1.46126e-19)
(-0.0403048 0.0589803 5.05525e-19)
(-0.0300623 0.052192 2.71591e-19)
(-0.0124212 0.0438126 -1.35585e-19)
(0.0110073 0.0340905 -3.57239e-20)
(0.0539241 0.0337786 -1.74018e-19)
(-0.011191 0.0180926 2.34052e-19)
(-0.027116 0.0418647 -3.46229e-19)
(-0.0381284 0.0559821 5.23573e-19)
(-0.0432657 0.0624218 -1.82363e-19)
(-0.0421628 0.062881 -1.81848e-19)
(-0.0343669 0.0588722 -5.65618e-19)
(-0.0190628 0.0516857 -3.69145e-19)
(0.00512686 0.0427178 2.03539e-19)
(0.0367037 0.0315534 3.02394e-19)
(0.0933208 0.0326478 3.12734e-19)
(-0.0122427 0.0182305 -2.05522e-19)
(-0.0290373 0.0419552 -8.64023e-20)
(-0.0395528 0.0558614 1.17818e-20)
(-0.0428968 0.0620071 2.26925e-20)
(-0.0386753 0.0621731 4.71595e-19)
(-0.0263511 0.0579122 1.84762e-20)
(-0.00490074 0.0505191 3.59564e-19)
(0.0272564 0.0412522 -3.20399e-19)
(0.068951 0.0286744 -6.21842e-19)
(0.141684 0.0325705 -2.99521e-19)
(-0.0132705 0.0182195 7.5459e-20)
(-0.0307651 0.0415995 5.33252e-19)
(-0.0404757 0.0550525 8.28673e-21)
(-0.0415464 0.0607452 -2.83142e-19)
(-0.0335069 0.0605624 1.74156e-19)
(-0.015672 0.0561253 -2.94038e-19)
(0.0132724 0.0487851 -6.05579e-20)
(0.0550384 0.0396529 1.51087e-19)
(0.109513 0.0258915 1.90451e-19)
(0.19997 0.0345578 1.47207e-19)
(-0.0142621 0.0180678 1.6998e-19)
(-0.0322251 0.0408065 -2.63562e-19)
(-0.0407297 0.0535681 -2.40575e-19)
(-0.0389205 0.0586517 -3.3101e-20)
(-0.0261969 0.0580754 1.64364e-19)
(-0.00164969 0.0535657 5.55053e-19)
(0.0364239 0.0466115 4.52879e-19)
(0.0896289 0.0381352 6.60846e-20)
(0.160287 0.0239719 5.48242e-19)
(0.267934 0.0396049 2.44459e-19)
(-0.0152026 0.0177819 7.66173e-20)
(-0.033327 0.0395866 4.81371e-19)
(-0.0401156 0.0514309 1.19698e-19)
(-0.034673 0.0557633 4.78751e-19)
(-0.0162088 0.0547757 -1.76315e-19)
(0.0164882 0.0503369 -5.46386e-19)
(0.0656106 0.0441806 -2.75154e-19)
(0.13223 0.0368833 -3.1097e-19)
(0.223045 0.0242336 -6.65912e-19)
(0.343281 0.0485482 -8.17153e-20)
(-0.0160726 0.0173655 -3.69122e-19)
(-0.0339635 0.0379527 2.29488e-19)
(-0.0383937 0.0486725 -3.2362e-19)
(-0.0283996 0.052147 -2.09782e-19)
(-0.00292897 0.0507779 -8.35503e-20)
(0.039597 0.046614 -2.10575e-20)
(0.101926 0.0417496 8.49754e-20)
(0.18412 0.0360706 1.3671e-19)
(0.298993 0.0285951 2.32392e-19)
(0.421997 0.0608439 -3.90262e-19)
(-0.0168422 0.0168174 1.22036e-20)
(-0.0340046 0.0359169 -2.29423e-19)
(-0.0352842 0.0453398 1.67803e-19)
(-0.0196348 0.0479072 2.74328e-19)
(0.0143276 0.0462611 -1.79855e-19)
(0.0685843 0.0426666 4.33643e-19)
(0.146382 0.0396664 -1.47197e-19)
(0.246542 0.0360361 -7.3163e-20)
(0.387817 0.0385429 1.17144e-20)
(0.501689 0.0704116 1.25992e-19)
(-0.0174684 0.016132 -2.87628e-20)
(-0.0332885 0.0334921 2.70038e-19)
(-0.0304647 0.0414997 -2.76687e-20)
(-0.00785661 0.043189 -2.02651e-19)
(0.0362987 0.0414778 1.62417e-19)
(0.104357 0.0388771 -1.44313e-19)
(0.199755 0.0383967 6.04519e-19)
(0.320136 0.0375897 -1.59038e-19)
(0.485461 0.0525459 3.2574e-19)
(0.587855 0.067726 -1.59294e-19)
(-0.0178977 0.015304 -1.73439e-19)
(-0.0316201 0.0306937 2.45496e-19)
(-0.0235676 0.0372365 -1.42139e-19)
(0.00750438 0.0381805 1.98359e-19)
(0.063743 0.0367557 -3.53484e-19)
(0.147747 0.035745 -4.67739e-19)
(0.262497 0.0385498 -4.6122e-19)
(0.404316 0.0419766 6.31065e-20)
(0.584102 0.0649081 2.26477e-19)
(0.70943 0.0686459 -6.01185e-20)
(-0.018064 0.014324 3.21154e-19)
(-0.0287748 0.0275411 -3.46655e-19)
(-0.0141858 0.0326557 -7.93058e-20)
(0.027045 0.0331121 -3.7099e-19)
(0.0973894 0.032489 6.63294e-19)
(0.199395 0.0338574 4.97661e-19)
(0.334618 0.0408208 9.7693e-20)
(0.496996 0.0500621 -2.64848e-21)
(0.685066 0.0775884 -5.99909e-20)
(0.827784 0.0840829 8.67097e-19)
(-0.0178838 0.013181 -6.56197e-20)
(-0.0245 0.0240645 1.1485e-20)
(-0.00188616 0.0278872 -1.90105e-19)
(0.0513584 0.0282553 -6.19959e-20)
(0.137867 0.029124 2.71166e-19)
(0.259599 0.0338358 -5.71535e-19)
(0.415414 0.0458725 2.38608e-19)
(0.595014 0.0618541 1.0942e-19)
(0.785717 0.0924631 -7.48997e-19)
(0.931845 0.103431 -1.29997e-19)
(-0.0172588 0.0118674 3.64345e-19)
(-0.0185188 0.020309 -1.96183e-19)
(0.0137753 0.0230889 1.97236e-19)
(0.0809942 0.023921 6.93064e-20)
(0.185616 0.0271423 -1.01445e-19)
(0.328154 0.0362743 -4.9251e-20)
(0.503225 0.0541856 -2.45516e-19)
(0.694614 0.0768599 2.62482e-19)
(0.881197 0.109409 1.81768e-20)
(1.02107 0.123327 -1.33991e-19)
(-0.016078 0.0103828 -1.94336e-19)
(-0.0105379 0.0163409 4.69978e-19)
(0.0332327 0.0184526 -1.32173e-19)
(0.116411 0.0204593 3.32543e-20)
(0.240795 0.0270417 6.105e-19)
(0.404226 0.0416702 -2.69934e-19)
(0.595449 0.0659185 -2.44261e-19)
(0.791741 0.0943551 9.08708e-20)
(0.967651 0.127545 7.96579e-20)
(1.09362 0.142536 -6.96409e-20)
(-0.0142206 0.00873691 8.68483e-20)
(-0.00025777 0.0122554 4.33976e-20)
(0.0568857 0.0142103 5.51717e-20)
(0.157922 0.0182578 -9.22963e-20)
(0.303182 0.0293085 -1.08668e-19)
(0.486289 0.0503452 -4.18477e-19)
(0.688843 0.0808392 5.62969e-20)
(0.882695 0.113494 7.06464e-20)
(1.04254 0.145927 1.24847e-19)
(1.15042 0.160239 3.56481e-19)
(-0.0115592 0.00695366 -7.15667e-20)
(0.0126146 0.00818264 -5.92299e-19)
(0.0850714 0.0106381 4.04388e-19)
(0.205643 0.0177344 1.85171e-19)
(0.372101 0.0343766 -2.89015e-19)
(0.572179 0.0623775 -4.38411e-20)
(0.780009 0.0983878 3.29875e-19)
(0.964673 0.133428 5.47616e-19)
(1.10489 0.163807 1.47905e-20)
(1.19322 0.176215 -1.40282e-19)
(-0.00796397 0.00507338 -1.07783e-19)
(0.0283512 0.00429191 2.12518e-19)
(0.118033 0.00805641 -5.24473e-19)
(0.259432 0.0193214 -1.87866e-19)
(0.446384 0.0425707 1.96279e-19)
(0.659306 0.0775759 1.06624e-19)
(0.865914 0.117832 -3.77545e-19)
(1.03602 0.153438 -2.65583e-19)
(1.15497 0.180729 -3.32115e-19)
(1.22428 0.190497 1.93884e-19)
(-0.0033077 0.00315479 4.12622e-20)
(0.047187 0.000793741 3.87181e-19)
(0.155887 0.00682468 1.93029e-19)
(0.318847 0.0234362 2.09303e-19)
(0.524412 0.0540499 -7.27531e-20)
(0.744975 0.095519 3.4802e-19)
(0.944255 0.138431 -3.01835e-20)
(1.09617 0.172999 1.92543e-19)
(1.19385 0.19649 3.67824e-19)
(1.24587 0.203298 -1.66886e-19)
(0.00252931 0.00127561 -1.1971e-19)
(0.0693016 -0.00206186 -2.35519e-19)
(0.19859 0.00732938 -1.52837e-19)
(0.383117 0.0304414 1.49521e-19)
(0.604237 0.0687744 3.04825e-20)
(0.826728 0.115649 -2.97779e-19)
(1.0136 0.159547 6.80831e-20)
(1.14541 0.191792 8.41164e-20)
(1.22299 0.211071 5.11664e-20)
(1.26006 0.214891 6.21777e-20)
(0.009653 -0.000467376 8.05478e-20)
(0.094801 -0.00399022 2.15072e-19)
(0.245909 0.00996466 2.10021e-19)
(0.451152 0.0405997 -2.60557e-19)
(0.683776 0.086516 -1.86135e-19)
(0.902597 0.137379 1.11127e-19)
(1.07334 0.180696 1.81245e-19)
(1.18456 0.209663 -4.54966e-20)
(1.24396 0.224573 -1.86706e-19)
(1.26858 0.225563 -4.95226e-20)
(0.0181489 -0.00195984 5.20413e-20)
(0.123699 -0.0046808 -9.81819e-21)
(0.297404 0.0151064 -9.73093e-20)
(0.5216 0.0540386 -1.50368e-20)
(0.761034 0.106908 -1.61615e-20)
(0.971219 0.160167 1.41244e-19)
(1.12349 0.201547 -2.24721e-19)
(1.21474 0.226586 -1.38967e-19)
(1.25826 0.237161 -4.24301e-21)
(1.27282 0.235574 9.14093e-20)
(0.0280759 -0.0030723 2.47273e-19)
(0.155905 -0.00380897 -4.61981e-20)
(0.352425 0.0230824 -7.75404e-20)
(0.592947 0.0707365 -1.2668e-20)
(0.83428 0.129514 -3.63247e-20)
(1.03182 0.183566 -1.55596e-19)
(1.16454 0.221902 9.59934e-20)
(1.23719 0.242616 -1.31649e-19)
(1.26722 0.249019 8.4034e-20)
(1.27384 0.245143 2.29255e-19)
(0.0394599 -0.00366339 -1.06874e-19)
(0.191206 -0.0010508 -2.23612e-19)
(0.410129 0.0341427 -2.83905e-20)
(0.663638 0.0905356 2.65748e-19)
(0.902154 0.153884 8.26765e-20)
(1.08412 0.207224 1.7982e-19)
(1.19722 0.241661 2.91829e-19)
(1.25309 0.257858 6.36006e-20)
(1.27194 0.260329 6.4323e-20)
(1.27243 0.25444 -1.69093e-19)
(0.052288 -0.00358424 9.7899e-21)
(0.229269 0.00389985 1.53297e-19)
(0.469516 0.0484371 1.59239e-19)
(0.7322 0.113173 -1.70997e-19)
(0.963702 0.179598 2.13246e-19)
(1.12824 0.230885 -1.83688e-19)
(1.22242 0.260799 -3.99001e-20)
(1.26353 0.272433 -5.98693e-20)
(1.27331 0.271249 -6.1731e-20)
(1.26915 0.263584 -8.77462e-20)
(0.0665039 -0.00268371 -9.9307e-21)
(0.269641 0.0113131 -1.56261e-20)
(0.529493 0.0660036 -1.17415e-20)
(0.797336 0.138317 -9.49764e-21)
(1.01834 0.20628 4.42764e-20)
(1.16453 0.254364 4.83885e-20)
(1.24102 0.279331 -5.00104e-20)
(1.26945 0.286465 -3.4942e-20)
(1.27202 0.281909 -3.80384e-20)
(1.26437 0.272654 1.14558e-19)
(0.0820061 -0.000814347 -1.59835e-20)
(0.311758 0.0214056 4.20197e-20)
(0.588928 0.0867698 6.60857e-20)
(0.857977 0.165603 -2.03831e-20)
(1.06582 0.233607 -1.45781e-19)
(1.1935 0.277539 -1.11865e-19)
(1.25388 0.297298 -3.88632e-21)
(1.27162 0.300063 8.15351e-20)
(1.26857 0.2924 -1.24594e-20)
(1.25837 0.281688 -3.16176e-20)
(0.0986463 0.00216112 -4.3307e-20)
(0.354966 0.0343251 2.33391e-20)
(0.646723 0.110564 -2.49695e-20)
(0.913306 0.194655 5.44028e-21)
(1.10611 0.261299 1.75442e-20)
(1.21577 0.300321 2.45561e-20)
(1.26176 0.314747 -4.16634e-21)
(1.27066 0.313314 -4.83132e-20)
(1.26333 0.302782 2.89471e-21)
(1.2513 0.290694 1.49243e-20)
(0.116232 0.00636305 -1.44377e-20)
(0.398548 0.0501401 9.21273e-24)
(0.701863 0.137134 3.58712e-21)
(0.962749 0.2251 -3.46684e-21)
(1.13937 0.289121 2.35952e-20)
(1.23192 0.322652 7.84461e-21)
(1.26534 0.331722 4.33748e-21)
(1.26708 0.326277 -1.65532e-21)
(1.25657 0.31308 -6.80177e-21)
(1.24327 0.299657 -1.4059e-20)
(0.13453 0.0118883 -6.88447e-21)
(0.44175 0.0688339 -2.07974e-20)
(0.753454 0.166162 1.55684e-20)
(1.00594 0.256576 -1.5911e-21)
(1.16589 0.316863 1.4324e-20)
(1.24257 0.344482 1.26802e-20)
(1.26519 0.34825 9.5989e-21)
(1.26124 0.338986 -7.41484e-21)
(1.24845 0.323291 -7.28228e-21)
(1.23434 0.308539 -1.10865e-20)
(0.153273 0.0188045 -2.45329e-20)
(0.483818 0.0903048 -2.41883e-20)
(0.800746 0.197287 -1.51929e-20)
(1.0427 0.288736 -1.4363e-20)
(1.18601 0.344341 2.97532e-20)
(1.24826 0.365767 4.07724e-20)
(1.26177 0.364343 -5.26336e-21)
(1.25343 0.351445 -3.57129e-20)
(1.23911 0.333384 -5.72667e-21)
(1.22455 0.317292 -4.55416e-21)
(0.172168 0.0271452 -2.81063e-20)
(0.524021 0.114371 1.32091e-20)
(0.843143 0.230114 3.66252e-20)
(1.07299 0.321247 1.3357e-20)
(1.20013 0.371386 -1.83416e-19)
(1.24949 0.386457 -2.20123e-20)
(1.25547 0.379992 -2.28399e-20)
(1.24385 0.363634 6.21372e-20)
(1.22861 0.343308 -2.2427e-20)
(1.21393 0.325856 -9.71789e-21)
(0.190902 0.0369063 2.74928e-20)
(0.56168 0.140776 -6.21566e-20)
(0.880197 0.26423 -1.12582e-19)
(1.09688 0.353791 3.23693e-20)
(1.20864 0.397835 8.73391e-20)
(1.24669 0.406494 1.69511e-20)
(1.2466 0.395168 1.19948e-20)
(1.23266 0.375508 -2.47041e-20)
(1.21702 0.352992 -2.84138e-20)
(1.2025 0.334161 6.36371e-20)
(0.209157 0.0480452 5.96238e-20)
(0.596187 0.169205 2.65712e-19)
(0.911599 0.299213 4.10552e-20)
(1.11453 0.38606 -1.59914e-19)
(1.21194 0.423534 8.31915e-20)
(1.24025 0.425811 -1.03367e-20)
(1.2354 0.40982 -1.22189e-19)
(1.21995 0.386999 1.03388e-20)
(1.20435 0.362346 -2.24173e-20)
(1.19025 0.342133 -4.82865e-20)
(0.226617 0.0604799 -2.50073e-19)
(0.62702 0.199287 -2.81308e-19)
(0.937167 0.334634 -4.55189e-20)
(1.12615 0.41776 3.97149e-19)
(1.21041 0.448327 -1.66683e-20)
(1.23052 0.444328 2.2041e-19)
(1.22208 0.423882 1.36981e-19)
(1.2058 0.398028 1.03238e-19)
(1.19061 0.371272 1.93616e-20)
(1.17707 0.349699 -5.03485e-20)
(0.242976 0.0740917 2.34866e-19)
(0.653746 0.230616 -2.33854e-19)
(0.956827 0.370069 1.43198e-19)
(1.13201 0.448606 -1.47541e-19)
(1.20443 0.47206 3.26461e-20)
(1.21777 0.461953 -1.57922e-19)
(1.20678 0.437277 8.89107e-21)
(1.1903 0.408519 -1.41183e-20)
(1.17576 0.379708 1.90212e-20)
(1.16274 0.356774 8.50142e-20)
(0.257947 0.0887275 1.865e-20)
(0.676036 0.262756 7.31009e-20)
(0.970601 0.4051 -1.0395e-19)
(1.1324 0.478326 -4.01727e-20)
(1.19434 0.494577 -7.07281e-20)
(1.20226 0.478583 1.38495e-19)
(1.18967 0.449909 -1.61757e-19)
(1.17349 0.418395 -4.69325e-20)
(1.15984 0.387675 1.81161e-20)
(1.1472 0.363228 -2.634e-20)
(0.271272 0.104204 3.29362e-20)
(0.693656 0.295254 1.25541e-19)
(0.978589 0.439317 4.54389e-19)
(1.12764 0.506656 -3.24126e-19)
(1.18047 0.51572 -1.37595e-19)
(1.18424 0.494102 -6.34113e-20)
(1.17085 0.461668 1.50594e-19)
(1.15544 0.42755 4.697e-20)
(1.14291 0.395191 -6.11109e-20)
(1.13102 0.368983 -2.22195e-20)
(0.282726 0.120314 -9.49662e-20)
(0.706469 0.327654 -2.06145e-19)
(0.980955 0.472327 -3.36087e-19)
(1.11805 0.533345 2.55541e-19)
(1.16314 0.535331 6.96416e-21)
(1.16389 0.508391 -1.43711e-19)
(1.15044 0.472436 4.94236e-20)
(1.13625 0.435858 -2.08378e-21)
(1.12498 0.401961 3.08717e-20)
(1.11439 0.374179 -4.08266e-21)
(0.292124 0.136827 -5.17857e-20)
(0.714423 0.359505 3.44332e-19)
(0.977918 0.503754 3.82809e-19)
(1.10398 0.558151 8.36923e-20)
(1.14263 0.553256 -5.4764e-20)
(1.14142 0.521321 2.74088e-19)
(1.12859 0.482094 -8.85815e-20)
(1.11595 0.443243 2.72174e-20)
(1.10605 0.407867 6.5051e-20)
(1.09712 0.378586 6.07535e-21)
(0.299322 0.1535 -2.05412e-19)
(0.717545 0.390365 1.00526e-19)
(0.96975 0.53324 -3.06262e-19)
(1.08578 0.580847 -1.2756e-19)
(1.11923 0.569341 6.45217e-20)
(1.11704 0.532757 -8.39171e-21)
(1.10543 0.490521 -1.21168e-19)
(1.09459 0.449593 -4.30631e-20)
(1.08628 0.412818 -2.97597e-20)
(1.07918 0.382117 1.0126e-20)
(0.304217 0.170086 -1.46419e-19)
(0.715937 0.419814 -3.86546e-19)
(0.956775 0.560457 2.78811e-19)
(1.06378 0.601214 4.19765e-21)
(1.09322 0.583425 4.79533e-20)
(1.09093 0.542569 -1.21284e-19)
(1.08101 0.497596 9.37045e-20)
(1.07225 0.454798 3.41739e-20)
(1.06572 0.416723 4.37746e-21)
(1.06063 0.38468 3.60275e-20)
(0.306752 0.186329 1.5929e-19)
(0.709778 0.44745 3.39791e-20)
(0.939379 0.585125 -2.36695e-19)
(1.0383 0.619038 5.05261e-20)
(1.06486 0.595353 -5.23454e-20)
(1.06326 0.550618 -6.43337e-20)
(1.05549 0.503203 -1.47079e-20)
(1.04905 0.458751 -9.3969e-21)
(1.04445 0.419486 8.07723e-21)
(1.04155 0.386202 -8.55092e-20)
(0.306919 0.20198 -1.35504e-19)
(0.699333 0.472886 4.61693e-19)
(0.917917 0.606999 -2.38122e-19)
(1.0096 0.634122 1.84231e-19)
(1.03443 0.604966 1.25092e-19)
(1.03422 0.556775 -1.53247e-21)
(1.02899 0.50723 -2.95077e-20)
(1.02507 0.461354 2.5844e-20)
(1.02256 0.421005 -7.45939e-20)
(1.02202 0.386588 2.7805e-20)
(0.304775 0.2168 8.46165e-20)
(0.684934 0.495799 -1.33744e-19)
(0.892499 0.625713 2.44327e-19)
(0.97815 0.646385 -8.01414e-20)
(1.00224 0.612112 -6.71592e-20)
(1.00401 0.560923 3.01754e-20)
(1.00166 0.509573 2.06294e-20)
(1.00043 0.462518 -2.71774e-21)
(1.00014 0.421187 1.10099e-21)
(1.00213 0.385748 1.71509e-20)
(0.300415 0.230542 -1.02816e-19)
(0.666868 0.516067 -4.24103e-20)
(0.863372 0.640933 -5.58818e-20)
(0.944401 0.655566 -2.2627e-20)
(0.96855 0.616727 -3.62341e-20)
(0.972809 0.562961 6.39303e-20)
(0.973628 0.510136 -4.10141e-20)
(0.975242 0.462166 -9.81246e-20)
(0.977311 0.419966 2.58716e-19)
(0.982156 0.383638 1.16514e-19)
(0.293927 0.242862 1.19429e-19)
(0.645236 0.533338 -1.5644e-19)
(0.831355 0.652828 -1.85405e-20)
(0.908728 0.661463 -4.75939e-20)
(0.933619 0.618691 -1.35196e-20)
(0.940814 0.562792 -1.20814e-19)
(0.945031 0.50882 8.32833e-21)
(0.949599 0.460193 -1.6738e-20)
(0.954354 0.417263 -8.30138e-20)
(0.962785 0.380294 -2.20372e-19)
(0.285331 0.253544 -8.50438e-21)
(0.620278 0.547068 4.09757e-20)
(0.796946 0.661135 -3.37461e-20)
(0.871416 0.664097 1.62414e-20)
(0.897703 0.617925 8.87864e-20)
(0.908204 0.560337 8.95908e-20)
(0.915971 0.505532 2.33126e-19)
(0.923605 0.456438 5.36231e-20)
(0.931651 0.412835 -1.33477e-19)
(0.944694 0.375695 1.48914e-22)
(0.274856 0.26244 1.75004e-20)
(0.592611 0.557166 4.5002e-22)
(0.760441 0.665646 -3.05148e-21)
(0.832803 0.663387 2.18358e-20)
(0.861063 0.614365 5.1611e-20)
(0.875157 0.555542 -6.75475e-21)
(0.886556 0.500221 -3.6864e-19)
(0.897415 0.450779 3.70334e-20)
(0.909452 0.406227 1.19894e-20)
(0.927036 0.368952 6.39922e-20)
(0.262719 0.269459 4.62819e-21)
(0.562652 0.563507 -6.55944e-21)
(0.72225 0.666223 -9.65142e-20)
(0.793238 0.659272 4.10909e-20)
(0.823961 0.607971 8.12534e-22)
(0.841863 0.548377 -2.70763e-19)
(0.856963 0.492896 2.67867e-19)
(0.871255 0.443361 -2.30685e-19)
(0.887621 0.397661 2.49555e-19)
(0.90697 0.356218 -1.37128e-19)
(0.249096 0.274442 6.791e-20)
(0.530832 0.565983 6.99548e-20)
(0.682799 0.662803 1.75344e-19)
(0.753069 0.651711 1.43646e-19)
(0.786663 0.598713 3.58263e-20)
(0.808537 0.538815 3.73403e-21)
(0.827443 0.483535 -1.61953e-19)
(0.845348 0.434328 3.65232e-20)
(0.865136 0.389214 -2.47552e-19)
(0.883825 0.349371 3.18803e-19)
(0.234211 0.277266 -1.66209e-20)
(0.497579 0.564513 -5.91108e-20)
(0.642511 0.65536 -2.81102e-19)
(0.712642 0.640692 -1.50987e-19)
(0.749434 0.58658 -6.38468e-21)
(0.775401 0.526831 5.13397e-19)
(0.798206 0.472075 4.11453e-19)
(0.819779 0.423372 2.82146e-19)
(0.842633 0.378654 5.78588e-19)
(0.862202 0.339043 2.97681e-19)
(0.218307 0.277844 -1.33973e-20)
(0.463319 0.559051 2.19239e-19)
(0.601804 0.6439 8.13319e-20)
(0.672298 0.626226 -7.79535e-20)
(0.712536 0.571583 8.97261e-20)
(0.742669 0.512435 -7.30609e-19)
(0.769393 0.458559 -3.88653e-19)
(0.794538 0.410711 -1.96936e-19)
(0.820187 0.36694 -3.50431e-19)
(0.841311 0.328441 -1.17387e-19)
(0.201636 0.276116 -3.75975e-20)
(0.428475 0.549591 -4.26986e-19)
(0.561089 0.628462 4.09845e-20)
(0.632369 0.608354 1.93086e-19)
(0.676232 0.553748 -7.02791e-20)
(0.710558 0.495643 1.0972e-19)
(0.74118 0.442984 3.4145e-19)
(0.7698 0.396272 -1.45466e-19)
(0.798157 0.35369 -4.31172e-19)
(0.82125 0.31647 -1.94357e-20)
(0.184454 0.272052 9.62469e-20)
(0.393465 0.536164 1.20776e-19)
(0.520762 0.609112 2.1068e-19)
(0.593179 0.587137 -1.0612e-19)
(0.640778 0.533126 -4.33176e-19)
(0.679275 0.476493 -4.7117e-19)
(0.713729 0.425393 -1.73668e-19)
(0.745718 0.380123 5.18078e-19)
(0.776734 0.339031 4.20551e-19)
(0.80201 0.303264 4.68434e-19)
(0.167015 0.265652 -3.57321e-19)
(0.358697 0.518836 4.31556e-19)
(0.481209 0.585946 -3.1416e-19)
(0.555043 0.562665 -2.79552e-19)
(0.606425 0.509785 6.2681e-19)
(0.649022 0.455041 5.60712e-19)
(0.687209 0.405828 6.66974e-19)
(0.722454 0.36229 -2.31247e-19)
(0.756068 0.322936 -2.34047e-19)
(0.783624 0.288761 -6.76308e-19)
(0.149574 0.25694 2.64542e-19)
(0.324569 0.497711 -9.67395e-20)
(0.442801 0.559091 3.83349e-19)
(0.51826 0.535048 -3.46388e-19)
(0.573412 0.483815 -4.81519e-20)
(0.619999 0.431359 -9.59941e-19)
(0.661788 0.384353 -4.3455e-19)
(0.700159 0.342827 2.38101e-19)
(0.736288 0.30544 9.21394e-20)
(0.766152 0.27299 -6.70489e-21)
(0.132378 0.245969 1.34966e-19)
(0.291462 0.472924 -3.62418e-19)
(0.40589 0.528697 -4.85416e-19)
(0.48312 0.504419 3.23953e-20)
(0.54197 0.455323 4.6972e-19)
(0.592395 0.405535 -3.35687e-20)
(0.637627 0.361044 -1.57539e-19)
(0.678975 0.321792 -2.72767e-19)
(0.71751 0.286582 -5.10369e-19)
(0.749662 0.255996 1.42043e-20)
(0.115668 0.232818 5.33987e-20)
(0.259739 0.444643 -5.15597e-20)
(0.370809 0.494944 7.92989e-19)
(0.449893 0.470932 3.10888e-19)
(0.512321 0.424438 -1.04492e-19)
(0.566395 0.377677 6.99021e-19)
(0.614882 0.335989 -3.53377e-19)
(0.659036 0.299261 4.29353e-19)
(0.699844 0.266419 1.68109e-19)
(0.734226 0.237841 -2.75544e-19)
(0.0996738 0.217588 1.77373e-19)
(0.229742 0.413066 2.55125e-19)
(0.337873 0.458035 -9.11651e-19)
(0.418835 0.434762 -1.3448e-19)
(0.484671 0.391303 -5.91073e-19)
(0.542171 0.347905 7.66656e-20)
(0.593701 0.309294 9.69404e-20)
(0.640468 0.275319 1.45713e-19)
(0.683397 0.245024 5.17901e-19)
(0.719915 0.218599 1.07368e-19)
(0.0846109 0.200404 -2.41417e-19)
(0.20179 0.378419 3.37229e-19)
(0.307371 0.418195 2.12761e-20)
(0.390183 0.396103 8.51645e-20)
(0.459213 0.35608 5.86313e-19)
(0.519886 0.316356 1.02675e-20)
(0.574222 0.281074 1.44106e-19)
(0.62339 0.250064 -7.0743e-20)
(0.668268 0.22248 -3.25033e-19)
(0.706799 0.198353 -9.54086e-20)
(0.0706811 0.181411 4.86168e-19)
(0.176175 0.34095 -3.71239e-19)
(0.279569 0.375672 4.63417e-19)
(0.364156 0.355167 -2.83784e-20)
(0.436128 0.318944 -1.2012e-20)
(0.499693 0.283179 -5.52268e-19)
(0.556576 0.251459 1.05633e-19)
(0.607914 0.223607 3.11723e-20)
(0.654553 0.198883 -1.26912e-19)
(0.694945 0.177195 5.52377e-19)
(0.0580683 0.160772 -5.38892e-19)
(0.153164 0.300935 2.92832e-19)
(0.254709 0.330732 -2.88829e-19)
(0.34095 0.312179 -1.69216e-19)
(0.415578 0.280086 -4.99283e-20)
(0.48173 0.248537 1.27192e-19)
(0.540884 0.220587 1.78659e-19)
(0.594145 0.196067 1.80151e-19)
(0.642341 0.174338 -3.09208e-19)
(0.684414 0.155222 -2.0862e-19)
(0.0469376 0.138671 1.45706e-19)
(0.132991 0.258666 -7.0381e-20)
(0.233003 0.28366 -4.60623e-20)
(0.320741 0.267383 5.33143e-19)
(0.397709 0.239708 -9.72528e-20)
(0.466123 0.212602 -1.05499e-19)
(0.527254 0.18861 1.98066e-19)
(0.582181 0.167576 -9.57441e-20)
(0.631718 0.148959 7.02994e-20)
(0.675264 0.132536 1.39467e-19)
(0.0374334 0.115302 1.29491e-19)
(0.115862 0.214455 -4.21856e-20)
(0.214635 0.234752 9.43667e-20)
(0.30368 0.221031 -2.93588e-19)
(0.382646 0.198023 6.58598e-20)
(0.452981 0.175555 4.25142e-19)
(0.515786 0.155682 -2.54893e-19)
(0.572112 0.138268 -4.20439e-19)
(0.622768 0.122869 -1.27551e-19)
(0.667555 0.109247 5.02531e-21)
(0.0296784 0.090876 4.15229e-20)
(0.101951 0.168631 -1.28986e-19)
(0.199762 0.184323 2.55239e-19)
(0.289895 0.173387 -9.14521e-20)
(0.370496 0.155252 1.49132e-19)
(0.442398 0.137585 -3.51939e-19)
(0.506566 0.121968 1.75422e-19)
(0.564024 0.108289 1.4908e-19)
(0.615573 0.0961985 2.28519e-19)
(0.661351 0.0854748 -2.00323e-19)
(0.0237721 0.0656127 -1.47098e-19)
(0.0913963 0.121534 6.9592e-20)
(0.188508 0.132693 -1.15515e-19)
(0.279487 0.124726 -1.54388e-19)
(0.361343 0.111624 -3.2901e-19)
(0.434445 0.0988854 2.35499e-19)
(0.499661 0.087633 -5.79202e-20)
(0.557989 0.0777825 1.76009e-19)
(0.610217 0.0690816 -1.5532e-19)
(0.656733 0.0613487 1.31682e-19)
(0.0197904 0.0397416 4.90282e-20)
(0.0843034 0.0735151 -1.59102e-20)
(0.180965 0.0801954 -1.82498e-20)
(0.27253 0.075326 1.29995e-19)
(0.355245 0.0673725 6.69635e-20)
(0.429174 0.0596525 -6.66213e-20)
(0.495118 0.0528414 -9.55384e-21)
(0.554062 0.0468876 -1.84448e-19)
(0.60678 0.0416373 1.3404e-19)
(0.653815 0.0369612 4.05966e-20)
(0.0177841 0.0134989 -1.14585e-20)
(0.0807427 0.0249342 -2.53539e-20)
(0.177194 0.0271681 -1.42575e-20)
(0.269072 0.0254752 9.3049e-21)
(0.352239 0.0227368 5.20415e-20)
(0.426607 0.0200871 9.39145e-21)
(0.492951 0.0177591 3.24797e-20)
(0.552254 0.0157357 5.85235e-20)
(0.60529 0.0139612 -5.39601e-21)
(0.652678 0.0123672 -5.79788e-20)
(0.0177793 -0.0128747 -2.1374e-20)
(0.080749 -0.0238441 -3.05071e-20)
(0.177226 -0.0260455 5.0553e-21)
(0.269133 -0.0245359 -6.71766e-21)
(0.352333 -0.0220381 6.11714e-20)
(0.426741 -0.0196033 -2.05754e-21)
(0.493135 -0.0174398 3.41796e-20)
(0.552506 -0.015529 5.50228e-20)
(0.605646 -0.0138186 8.41503e-21)
(0.653214 -0.0122458 -6.71577e-20)
(0.0197765 -0.0391367 8.4154e-20)
(0.084322 -0.0724524 1.68688e-20)
(0.181057 -0.0790993 -4.83837e-20)
(0.272707 -0.0744131 1.73494e-19)
(0.355518 -0.066703 1.97926e-20)
(0.429557 -0.059204 -2.92393e-20)
(0.495632 -0.0525679 -1.05569e-20)
(0.554733 -0.0467459 -1.68696e-19)
(0.607645 -0.0415948 1.12846e-19)
(0.654921 -0.0370024 -1.67588e-20)
(0.0237508 -0.0650451 -1.59915e-19)
(0.0914262 -0.120524 2.04283e-20)
(0.188654 -0.131648 -8.05601e-20)
(0.279765 -0.123862 -1.77806e-19)
(0.361767 -0.111007 -3.43979e-19)
(0.43503 -0.0984962 2.37407e-19)
(0.500417 -0.0874283 -9.90548e-22)
(0.558925 -0.077722 1.61467e-19)
(0.611332 -0.0691344 -1.93929e-19)
(0.658007 -0.0614895 1.70943e-19)
(0.0296519 -0.090361 -1.589e-20)
(0.101991 -0.167697 1.10961e-20)
(0.199953 -0.183349 -8.77863e-20)
(0.290255 -0.172591 1.25881e-19)
(0.371037 -0.154703 9.29906e-20)
(0.443124 -0.137266 -4.09884e-19)
(0.507469 -0.121835 1.20579e-19)
(0.565084 -0.108297 3.20126e-19)
(0.616746 -0.0963089 9.88844e-20)
(0.662575 -0.0856502 -1.25868e-19)
(0.0374051 -0.114852 -2.76226e-20)
(0.115912 -0.213614 -1.13436e-19)
(0.214861 -0.233866 2.39733e-19)
(0.3041 -0.220314 -2.72661e-19)
(0.383266 -0.197549 -1.70751e-19)
(0.45379 -0.175307 6.20337e-19)
(0.516754 -0.155611 -4.95566e-19)
(0.573189 -0.138322 -2.82351e-19)
(0.623884 -0.123003 -9.21629e-20)
(0.668635 -0.109416 2.6755e-20)
(0.046911 -0.138292 1.99474e-19)
(0.133049 -0.257929 9.28263e-20)
(0.233252 -0.282872 -7.78345e-20)
(0.321199 -0.266753 5.89817e-19)
(0.398372 -0.239311 -2.70282e-19)
(0.466965 -0.212418 5.98942e-20)
(0.528223 -0.188585 3.07636e-21)
(0.583205 -0.167654 -4.74644e-20)
(0.632719 -0.149091 1.11122e-19)
(0.676174 -0.132679 5.94187e-20)
(0.0580472 -0.16047 -4.158e-19)
(0.15323 -0.300311 4.69208e-20)
(0.254973 -0.33005 -2.71223e-19)
(0.341427 -0.311639 -9.98352e-20)
(0.416256 -0.279763 8.63088e-20)
(0.482566 -0.24841 4.70057e-20)
(0.54181 -0.220597 4.35311e-20)
(0.595079 -0.196154 1.06894e-19)
(0.643206 -0.174454 -4.9174e-20)
(0.68516 -0.155331 -3.72456e-19)
(0.070669 -0.181184 4.2791e-19)
(0.176252 -0.340443 -2.56644e-19)
(0.279842 -0.375097 4.77581e-19)
(0.364636 -0.354715 -6.17712e-20)
(0.436797 -0.318689 -1.16248e-19)
(0.500495 -0.283098 -4.59167e-19)
(0.557432 -0.25149 1.99501e-19)
(0.60874 -0.223691 -3.15207e-19)
(0.655282 -0.198977 2.0811e-19)
(0.695548 -0.17727 2.55655e-19)
(0.0846111 -0.20025 -3.2309e-19)
(0.201877 -0.378026 1.60338e-19)
(0.307646 -0.417727 3.46346e-19)
(0.390655 -0.395737 -4.03369e-20)
(0.459856 -0.355887 6.12762e-19)