# Probe 0 (5.5 0.5 0.05)
# Probe 1 (5.5 -0.5 0.05)
#       Probe             0             1
#        Time
