/*--------------------------------*- C++ -*----------------------------------*\
  =========                 |
  \\      /  F ield         | OpenFOAM: The Open Source CFD Toolbox
   \\    /   O peration     | Website:  https://openfoam.org
    \\  /    A nd           | Version:  7
     \\/     M anipulation  |
\*---------------------------------------------------------------------------*/
FoamFile
{
    version     2.0;
    format      ascii;
    class       volVectorField;
    location    "20";
    object      U;
}
// * * * * * * * * * * * * * * * * * * * * * * * * * * * * * * * * * * * * * //

dimensions      [0 1 -1 0 0 0 0];

internalField   nonuniform List<vector> 
6386
(
(-0.00123488 0.00109479 3.51241e-21)
(-0.00685144 0.00251646 1.2312e-20)
(-0.0173612 0.00336163 -4.57877e-21)
(-0.0298098 0.00377841 3.23285e-21)
(-0.0431078 0.00387874 -2.35415e-20)
(-0.0563922 0.00376855 -1.0109e-20)
(-0.0690773 0.00354507 -2.15257e-21)
(-0.0809194 0.00329686 -3.16393e-20)
(-0.0919493 0.00309902 4.116e-21)
(-0.102408 0.0030211 1.93983e-20)
(-0.00138824 0.00321153 -3.21617e-20)
(-0.00716224 0.00738653 -6.59968e-21)
(-0.0176911 0.00986939 1.96215e-20)
(-0.0300667 0.0110928 -7.34402e-20)
(-0.0432165 0.0113829 -9.11901e-21)
(-0.0562882 0.0110494 1.34896e-20)
(-0.0686993 0.010378 4.83475e-21)
(-0.0802066 0.0096314 8.76851e-20)
(-0.0908354 0.00903569 -6.33835e-20)
(-0.100785 0.00880252 1.04602e-20)
(-0.00169015 0.00527472 6.18114e-20)
(-0.00777541 0.0121429 -8.37647e-21)
(-0.0183434 0.0162334 3.36144e-20)
(-0.0305749 0.0182491 7.52706e-20)
(-0.0434311 0.0187226 1.53847e-19)
(-0.0560799 0.0181604 -1.11144e-19)
(-0.0679452 0.0170317 2.91076e-22)
(-0.0787843 0.0157725 -8.53764e-20)
(-0.0886133 0.0147636 1.08496e-19)
(-0.09754 0.014365 -1.02953e-19)
(-0.00213302 0.00725127 6.99048e-21)
(-0.00867751 0.0167143 -5.02171e-21)
(-0.0193051 0.0223621 3.77256e-20)
(-0.0313242 0.0251461 -5.41963e-20)
(-0.043744 0.0257915 -4.10866e-20)
(-0.0557625 0.0249912 1.95516e-19)
(-0.0668121 0.0233901 -5.99333e-20)
(-0.0766497 0.0215941 -1.72098e-19)
(-0.0852829 0.0201465 -5.6634e-20)
(-0.0926616 0.0195649 7.63527e-20)
(-0.00270605 0.00911146 1.18135e-20)
(-0.00984898 0.0210348 4.91442e-20)
(-0.0205568 0.0281698 -1.04755e-19)
(-0.0322977 0.0316872 1.22557e-19)
(-0.044142 0.0324879 8.07825e-20)
(-0.0553258 0.0314362 -3.01164e-19)
(-0.0652914 0.0293412 2.5554e-19)
(-0.0737923 0.0269748 1.53607e-19)
(-0.0808366 0.0250518 5.24549e-20)
(-0.0861146 0.0242613 -1.69158e-20)
(-0.00339582 0.01083 -8.56374e-20)
(-0.0112649 0.0250464 -3.83718e-20)
(-0.0220726 0.0335782 3.29509e-20)
(-0.0334719 0.0377826 -2.71858e-19)
(-0.0446038 0.0387161 1.31959e-19)
(-0.0547502 0.037396 -3.35056e-20)
(-0.0633626 0.0347801 1.83937e-21)
(-0.0701849 0.0317998 2.94824e-20)
(-0.0752486 0.0293534 -6.55827e-20)
(-0.0778225 0.0283168 -3.66005e-20)
(-0.00418706 0.0123866 1.88208e-19)
(-0.0128956 0.0286994 -2.12439e-20)
(-0.0238201 0.0385178 1.29351e-19)
(-0.034814 0.0433508 4.42631e-20)
(-0.0450966 0.044388 -3.80046e-20)
(-0.054001 0.0427791 -2.99375e-20)
(-0.0609855 0.0396109 -2.08038e-20)
(-0.0657714 0.0359643 -5.73793e-20)
(-0.068462 0.0329329 3.1202e-20)
(-0.0676402 0.0315983 2.41671e-19)
(-0.00506338 0.0137667 -2.00019e-19)
(-0.0147077 0.0319539 1.28706e-19)
(-0.0257596 0.042929 -2.3689e-19)
(-0.0362807 0.0483191 2.77142e-20)
(-0.0455721 0.0494248 6.66636e-20)
(-0.0530218 0.0475044 2.45071e-19)
(-0.0580903 0.0437504 -1.13744e-19)
(-0.0604516 0.0393789 1.90665e-19)
(-0.060372 0.0356852 -1.29003e-19)
(-0.0553219 0.0339859 -1.66866e-19)
(-0.00600809 0.014961 1.65242e-19)
(-0.0166646 0.0347797 -7.91149e-20)
(-0.0278442 0.0467624 -1.94031e-19)
(-0.0378152 0.0526248 1.78905e-20)
(-0.0459608 0.0537572 -3.33049e-19)
(-0.0517252 0.0515024 -2.0132e-20)
(-0.0545636 0.047131 1.48103e-20)
(-0.0540591 0.0419744 -9.54847e-20)
(-0.0507987 0.0375203 2.20916e-19)
(-0.0405106 0.0354326 8.82988e-20)
(-0.00700484 0.0159657 -1.289e-19)
(-0.0187272 0.0371557 -1.97853e-19)
(-0.0300186 0.0499788 5.00342e-19)
(-0.0393447 0.0562148 1.8357e-19)
(-0.046167 0.0573264 5.90676e-20)
(-0.049983 0.0547169 1.28262e-19)
(-0.0502336 0.0497043 -1.44269e-19)
(-0.046337 0.0437061 2.27582e-20)
(-0.0394031 0.0383199 -3.61429e-19)
(-0.0228079 0.0360787 3.33842e-20)
(-0.00803818 0.0167814 3.48426e-20)
(-0.0208541 0.0390696 9.69445e-20)
(-0.0322181 0.0525482 -6.54998e-19)
(-0.0407768 0.0590454 -9.11209e-20)
(-0.0460613 0.0600841 8.99493e-20)
(-0.0476149 0.0571068 -4.19294e-19)
(-0.0448557 0.0514475 -1.32809e-20)
(-0.0369479 0.0445703 -9.45907e-21)
(-0.0255228 0.0378751 -1.32953e-19)
(-0.00169809 0.0360141 1.99956e-20)
(-0.00909393 0.0174126 -3.52617e-20)
(-0.0230017 0.0405161 1.73081e-19)
(-0.0343673 0.054449 4.33994e-19)
(-0.0419958 0.0610819 -2.09318e-19)
(-0.0454739 0.0619919 1.58425e-20)
(-0.0443746 0.0586465 -1.59445e-19)
(-0.038085 0.0523708 -4.03578e-20)
(-0.0255367 0.0446531 3.77935e-19)
(-0.00843228 0.0363793 3.06396e-19)
(0.0242543 0.0351422 -3.84531e-20)
(-0.0101593 0.0178669 3.802e-20)
(-0.0251237 0.0414959 7.37333e-20)
(-0.0363781 0.055667 -3.87435e-19)
(-0.0428587 0.0622972 1.52326e-19)
(-0.0441872 0.0630199 1.6072e-19)
(-0.0399374 0.0593233 5.56162e-19)
(-0.0294163 0.0525117 2.98832e-19)
(-0.0114011 0.0440481 -1.49311e-19)
(0.0125114 0.0342054 -3.93527e-20)
(0.0565051 0.0336465 -1.91853e-19)
(-0.0112228 0.0181535 2.57316e-19)
(-0.0271701 0.0420138 -3.8049e-19)
(-0.0381475 0.0561943 5.75477e-19)
(-0.0431915 0.0626718 -2.00467e-19)
(-0.0419299 0.0631467 -1.99888e-19)
(-0.0339001 0.0591319 -6.22018e-19)
(-0.0182654 0.0519107 -4.06082e-19)
(0.0063858 0.042849 2.23994e-19)
(0.0385264 0.0314908 3.33029e-19)
(0.0964451 0.0323014 3.45398e-19)
(-0.0122736 0.0182826 -2.25737e-19)
(-0.0290852 0.0420774 -9.47033e-20)
(-0.0395543 0.0560287 1.28879e-20)
(-0.0427842 0.062195 2.49147e-20)
(-0.0383709 0.0623615 5.18311e-19)
(-0.0257639 0.0580816 2.03733e-20)
(-0.00391524 0.050644 3.95471e-19)
(0.0288044 0.0412847 -3.52547e-19)
(0.0711771 0.0284458 -6.8469e-19)
(0.145486 0.0320477 -3.30696e-19)
(-0.0308057 0.0416958 5.85321e-19)
(-0.0404555 0.0551742 9.07372e-21)
(-0.0413863 0.0608685 -3.10878e-19)
(-0.033114 0.0606689 1.91204e-19)
(-0.014935 0.0561983 -3.23061e-19)
(0.0144952 0.0488052 -6.65439e-20)
(0.056945 0.0395884 1.66279e-19)
(0.112253 0.0255138 2.09646e-19)
(0.204573 0.0339076 1.62467e-19)
(-0.0322564 0.0408782 -2.8905e-19)
(-0.0406816 0.0536447 -2.63877e-19)
(-0.0386999 0.0587094 -3.62503e-20)
(-0.0256923 0.0580972 1.80309e-19)
(-0.00072467 0.0535382 6.09715e-19)
(0.0379443 0.0465229 4.97769e-19)
(0.0919739 0.0379723 7.26321e-20)
(0.163669 0.0234671 6.03636e-19)
(0.273406 0.0388721 2.70026e-19)
(-0.0333465 0.0396355 5.27567e-19)
(-0.0400308 0.0514637 1.31223e-19)
(-0.0343744 0.0557558 5.25099e-19)
(-0.0155625 0.0547125 -1.93654e-19)
(0.0176484 0.0502076 -6.00049e-19)
(0.0674981 0.0439818 -3.02359e-19)
(0.135099 0.0366159 -3.41889e-19)
(0.227195 0.0236381 -7.33146e-19)
(0.349594 0.0477529 -9.07328e-20)
(-0.0382607 0.0486631 -3.54488e-19)
(-0.0280007 0.0520766 -2.2997e-19)
(-0.0021039 0.0506323 -9.17612e-20)
(0.0410476 0.0463858 -2.30055e-20)
(0.104255 0.0414441 9.33713e-20)
(0.187596 0.035691 1.50396e-19)
(0.303996 0.0279562 2.56098e-19)
(0.42903 0.0599592 -4.31292e-19)
(-0.0350885 0.0452907 1.83733e-19)
(-0.0191084 0.0477776 3.00512e-19)
(0.0153751 0.046039 -1.97286e-19)
(0.0703874 0.0423481 4.75787e-19)
(0.149227 0.0392653 -1.61598e-19)
(0.2507 0.0355475 -8.04761e-20)
(0.393652 0.0378938 1.28781e-20)
(0.509259 0.0693896 1.39753e-19)
(-0.00717043 0.0430052 -2.21838e-19)
(0.0376179 0.0411881 1.77856e-19)
(0.106578 0.0384825 -1.58355e-19)
(0.203183 0.0379193 6.63659e-19)
(0.325027 0.0370233 -1.74874e-19)
(0.491971 0.0518725 3.58648e-19)
(0.595693 0.0666313 -1.74754e-19)
(0.0653865 0.0364095 -3.8715e-19)
(0.150451 0.0352928 -5.12793e-19)
(0.266559 0.0380207 -5.06307e-19)
(0.409935 0.0413831 6.94466e-20)
(0.591086 0.0641784 2.49525e-19)
(0.717627 0.0676555 -6.63071e-20)
(0.0994102 0.0320988 7.25813e-19)
(0.202636 0.0333687 5.45238e-19)
(0.339334 0.0402657 1.07254e-19)
(0.503253 0.0494672 -2.77439e-21)
(0.692379 0.0767961 -6.60603e-20)
(0.835924 0.0831226 9.54219e-19)
(0.263412 0.0333318 -6.25858e-19)
(0.42076 0.0453147 2.61685e-19)
(0.601747 0.0612531 1.20045e-19)
(0.793135 0.0916175 -8.24915e-19)
(0.93953 0.10236 -1.43048e-19)
(0.509118 0.0536399 -2.69097e-19)
(0.701614 0.0762328 2.88201e-19)
(0.888463 0.108488 2.02222e-20)
(1.02813 0.122094 -1.47468e-19)
(0.798784 0.0936757 9.98333e-20)
(0.974564 0.126518 8.77366e-20)
(1.09997 0.141127 -7.70792e-20)
(1.04897 0.144775 1.37515e-19)
(1.15608 0.158666 3.93775e-19)
(1.19827 0.174507 -1.54699e-19)
(1.11099 -0.16258 -9.62356e-20)
(1.19845 -0.174562 -6.14694e-19)
(1.04916 -0.144821 -9.88032e-20)
(1.15627 -0.158716 6.17233e-19)
(0.798952 -0.0937021 -4.91902e-19)
(0.974751 -0.126555 3.93231e-19)
(1.10016 -0.14117 -1.56783e-19)
(0.509216 -0.0536465 -7.63182e-20)
(0.701756 -0.0762477 8.54197e-20)
(0.888633 -0.108514 -6.16894e-20)
(1.02831 -0.122127 -3.8391e-20)
(0.263446 -0.0333284 -1.94428e-19)
(0.420832 -0.0453127 2.76665e-19)
(0.60186 -0.0612561 3.48991e-19)
(0.793282 -0.0916314 -7.43322e-19)
(0.939692 -0.102381 -2.80358e-19)
(0.0994104 -0.0320938 -1.91245e-19)
(0.202655 -0.0333595 7.28987e-19)
(0.339382 -0.0402552 -8.37775e-20)
(0.503337 -0.049458 8.22733e-21)
(0.6925 -0.0767973 2.9901e-19)
(0.83606 -0.0831284 4.79537e-19)
(0.0653799 -0.0363993 -5.63101e-19)
(0.150456 -0.0352768 -3.152e-19)
(0.266586 -0.0380013 -5.80762e-19)
(0.409991 -0.0413615 -1.51809e-19)
(0.591178 -0.0641658 3.16271e-19)
(0.717728 -0.0676444 -5.06275e-20)
(-0.0071843 -0.0429963 8.01396e-20)
(0.0376057 -0.0411712 -5.49784e-20)
(0.106573 -0.0384584 8.19086e-20)
(0.203191 -0.0378901 7.42213e-19)
(0.325056 -0.0369893 -8.90362e-20)
(0.492033 -0.051844 -1.51929e-20)
(0.595754 -0.0666064 -1.57179e-19)
(-0.0351003 -0.0452843 3.075e-19)
(-0.0191235 -0.0477618 -1.17408e-19)
(0.0153582 -0.0460138 8.11275e-20)
(0.0703722 -0.0423144 4.91407e-19)
(0.14922 -0.0392249 -4.68033e-19)
(0.250706 -0.0355006 3.42842e-19)
(0.393685 -0.0378466 -3.57458e-19)
(0.509295 -0.0693568 1.56199e-19)
(-0.0382713 -0.0486504 -5.23462e-19)
(-0.0280166 -0.0520524 -2.51797e-19)
(-0.00212478 -0.0505973 1.41964e-20)
(0.041024 -0.0463411 -4.83141e-20)
(0.104234 -0.0413914 2.13451e-19)
(0.187581 -0.0356304 -7.01501e-20)
(0.303999 -0.0278905 3.24294e-19)
(0.42904 -0.0599116 -4.17153e-19)
(-0.0333502 -0.0396277 -1.68406e-19)
(-0.0400398 -0.0514432 5.71241e-19)
(-0.0343906 -0.0557219 2.47592e-19)
(-0.0155866 -0.0546661 7.55487e-20)
(0.0176176 -0.0501505 -6.41979e-19)
(0.067464 -0.0439156 -4.90295e-19)
(0.135065 -0.0365411 -3.32178e-19)
(0.227172 -0.0235555 -6.54157e-19)
(0.349577 -0.0476866 -3.18145e-19)
(-0.0322577 -0.0408645 -4.23528e-19)
(-0.0406887 -0.0536153 -1.33606e-19)
(-0.0387159 -0.0586645 6.14498e-20)
(-0.0257187 -0.0580385 -5.245e-20)
(-0.000761228 -0.0534679 8.09627e-19)
(0.0379 -0.0464426 4.14627e-19)
(0.0919255 -0.0378829 2.15891e-19)
(0.163623 -0.0233687 4.01093e-19)
(0.273363 -0.0387869 1.34363e-19)
(-0.0132997 -0.0182589 -8.27385e-20)
(-0.0308043 -0.0416752 5.50654e-19)
(-0.0404605 -0.0551348 -3.64378e-20)
(-0.0414016 -0.0608117 -2.13952e-19)
(-0.0331418 -0.0605972 1.02216e-19)
(-0.0149758 -0.0561143 -1.29651e-19)
(0.014443 -0.0487107 -3.38053e-19)
(0.0568845 -0.0394849 1.32194e-19)
(0.112189 -0.0254006 4.10254e-19)
(0.204507 -0.0338044 1.93888e-20)
(-0.0122709 -0.0182743 -1.07206e-19)
(-0.0290811 -0.042049 -1.85078e-19)
(-0.0395571 -0.0559785 -1.91489e-19)
(-0.0427982 -0.0621257 1.07838e-19)
(-0.0383992 -0.0622764 3.77268e-19)
(-0.0258072 -0.0579839 3.90684e-19)
(-0.0039728 -0.0505357 1.37087e-19)
(0.0287353 -0.041168 -4.50025e-19)
(0.0710999 -0.0283189 -3.78705e-19)
(0.1454 -0.0319282 -4.06979e-19)
(-0.0112186 -0.0181415 3.14055e-19)
(-0.0271633 -0.0419769 -3.93888e-19)
(-0.0381477 -0.0561328 2.60172e-19)
(-0.0432038 -0.0625896 2.2928e-19)
(-0.0419576 -0.0630482 -5.10229e-19)
(-0.0339443 -0.0590209 -4.44329e-19)
(-0.0183259 -0.0517894 -5.34093e-19)
(0.0063119 -0.0427206 1.98207e-19)
(0.0384409 -0.0313512 2.05305e-19)
(0.096346 -0.0321678 5.75589e-19)
(-0.0101537 -0.0178508 -2.24784e-19)
(-0.0251146 -0.0414501 9.45341e-20)
(-0.0363759 -0.0555937 -2.99305e-19)
(-0.042869 -0.0622021 2.42307e-19)
(-0.0442134 -0.0629084 3.58687e-20)
(-0.039981 -0.0591996 6.90132e-19)
(-0.0294775 -0.0523784 3.23904e-19)
(-0.0114759 -0.0439089 -1.70338e-19)
(0.0124221 -0.0340543 -6.94427e-20)
(0.056398 -0.0335011 4.79204e-21)
(-0.00908707 -0.0173923 -9.91893e-20)
(-0.0229904 -0.0404611 2.48446e-19)
(-0.0343628 -0.0543639 3.14671e-19)
(-0.0420038 -0.0609741 -3.32997e-20)
(-0.045498 -0.0618678 -3.08443e-19)
(-0.0444163 -0.058511 -2.69689e-21)
(-0.0381446 -0.0522266 1.00344e-19)
(-0.0256084 -0.044503 1.97962e-19)
(-0.00852284 -0.0362205 3.72712e-19)
(0.0241448 -0.034986 -1.08099e-20)
(-0.00803034 -0.0167566 -3.55679e-20)
(-0.020841 -0.0390052 1.80761e-20)
(-0.0322115 -0.0524514 -4.86936e-19)
(-0.0407826 -0.0589253 -1.89602e-19)
(-0.0460828 -0.0599482 6.89736e-20)
(-0.0476535 -0.0569605 -4.45103e-19)
(-0.0449114 -0.0512937 2.18412e-19)
(-0.0370158 -0.0444114 -2.89136e-19)
(-0.0256138 -0.0377138 -1.31102e-19)
(-0.00180322 -0.0358445 2.01899e-19)
(-0.0069963 -0.0159365 -9.60526e-20)
(-0.0187128 -0.037082 -1.52198e-19)
(-0.0300103 -0.0498708 5.14884e-19)
(-0.0393483 -0.056083 7.58836e-20)
(-0.0461857 -0.0571796 3.36791e-19)
(-0.050018 -0.0545609 -3.79985e-20)
(-0.0502847 -0.0495422 -6.89492e-20)
(-0.0464018 -0.0435404 -8.9219e-20)
(-0.0394874 -0.0381551 -3.48842e-19)
(-0.0229062 -0.0359008 -7.84509e-20)
(-0.00599919 -0.0149274 1.23705e-19)
(-0.0166495 -0.0346971 -1.72085e-19)
(-0.0278347 -0.0466437 -2.35047e-20)
(-0.0378168 -0.0524822 -4.82188e-20)
(-0.0459766 -0.0536004 -3.18643e-19)
(-0.0517561 -0.0513376 -8.38545e-22)
(-0.0546095 -0.0469615 -9.05226e-20)
(-0.0541186 -0.0418022 4.81871e-20)
(-0.0508738 -0.0373481 2.16132e-19)
(-0.0405998 -0.0352544 6.40573e-20)
(-0.00505446 -0.0137289 -2.28038e-19)
(-0.0146925 -0.0318629 1.84892e-19)
(-0.0257494 -0.0428003 -2.29537e-19)
(-0.0362807 -0.0481667 1.17285e-20)
(-0.045585 -0.049259 1.26702e-20)
(-0.0530484 -0.0473319 2.95042e-19)
(-0.0581304 -0.0435746 -5.88068e-20)
(-0.0605042 -0.0392012 -1.5816e-20)
(-0.0604375 -0.0355072 7.86187e-20)
(-0.0553998 -0.0338057 -3.63386e-19)
(-0.00417847 -0.012345 2.43866e-19)
(-0.0128809 -0.0286007 -1.34974e-19)
(-0.0238097 -0.03838 1.36399e-19)
(-0.0348128 -0.0431895 7.62773e-20)
(-0.0451069 -0.0442143 2.97154e-20)
(-0.0540234 -0.0425999 -7.06163e-20)
(-0.0610197 -0.0394296 -9.61023e-20)
(-0.0658165 -0.0357822 -1.04436e-19)
(-0.0685179 -0.0327508 1.86941e-19)
(-0.0677062 -0.0314157 1.36233e-19)
(-0.0033879 -0.0107849 -6.36929e-20)
(-0.0112513 -0.0249407 3.2834e-20)
(-0.0220627 -0.0334324 1.90349e-20)
(-0.0334699 -0.0376135 -2.45265e-19)
(-0.0446118 -0.0385355 4.89105e-20)
(-0.0547685 -0.037211 4.8756e-20)
(-0.0633909 -0.0345941 -1.01658e-19)
(-0.0702225 -0.031614 5.32862e-20)
(-0.0752951 -0.0291683 -4.29378e-20)
(-0.077877 -0.0281325 -8.8919e-20)
(-0.00269911 -0.00906333 -5.19644e-20)
(-0.00983704 -0.0209232 1.92945e-20)
(-0.0205478 -0.0280172 -4.12865e-20)
(-0.0322954 -0.0315115 1.33837e-19)
(-0.0441479 -0.0323016 -2.89311e-20)
(-0.0553403 -0.0312466 -2.06613e-19)
(-0.0653141 -0.0291515 1.31094e-19)
(-0.0738226 -0.0267861 2.26218e-19)
(-0.0808739 -0.0248645 7.3389e-20)
(-0.0861579 -0.0240756 -2.036e-21)
(-0.00212733 -0.00720064 -1.52997e-20)
(-0.00866769 -0.0165977 5.38494e-20)
(-0.0192976 -0.0222039 -1.06693e-19)
(-0.0313219 -0.0249651 3.95537e-20)
(-0.0437482 -0.0256007 -6.59131e-20)
(-0.0557734 -0.0247978 1.67336e-19)
(-0.0668294 -0.0231974 -8.97097e-20)
(-0.0766728 -0.0214032 -8.11738e-20)
(-0.0853113 -0.0199574 -1.29997e-19)
(-0.0926944 -0.0193784 1.20772e-19)
(-0.00168592 -0.00522217 5.72449e-20)
(-0.00776811 -0.0120226 -2.77769e-20)
(-0.0183378 -0.0160709 4.82108e-20)
(-0.0305731 -0.0180642 6.55749e-20)
(-0.0434339 -0.0185283 1.47162e-19)
(-0.0560875 -0.0179642 -1.10495e-19)
(-0.0679573 -0.0168369 2.90843e-20)
(-0.0788005 -0.0155799 -9.18256e-20)
(-0.0886332 -0.0145734 8.71137e-20)
(-0.097563 -0.014178 -7.90793e-20)
(-0.00138564 -0.00315767 -1.88473e-20)
(-0.00715774 -0.0072637 6.472e-21)
(-0.0176876 -0.00970411 7.49625e-21)
(-0.0300654 -0.0109051 -5.48593e-20)
(-0.0432181 -0.0111863 -2.96384e-20)
(-0.0562927 -0.0108514 3.09786e-20)
(-0.0687065 -0.0101817 4.99635e-21)
(-0.0802163 -0.00943768 9.67851e-20)
(-0.0908472 -0.00884467 -7.44258e-20)
(-0.100798 -0.00861511 -2.44204e-20)
(-0.001234 -0.00104027 -3.1834e-21)
(-0.00684993 -0.00239235 1.01303e-20)
(-0.01736 -0.00319492 -6.31812e-21)
(-0.0298093 -0.0035894 4.8885e-21)
(-0.0431083 -0.00368097 -2.33946e-20)
(-0.0563937 -0.00356959 -5.66085e-21)
(-0.0690797 -0.00334808 -7.39286e-21)
(-0.0809226 -0.00310261 -2.3588e-20)
(-0.0919532 -0.00290762 -1.70859e-21)
(-0.102412 -0.00283354 2.55714e-20)
(-0.111689 0.00314231 -1.21347e-21)
(-0.120329 0.00309879 4.82679e-21)
(-0.129038 0.00302704 1.01996e-22)
(-0.137853 0.00295351 -5.0181e-21)
(-0.146787 0.00288058 5.79914e-21)
(-0.15585 0.00280922 -2.29805e-22)
(-0.165057 0.00273804 -9.89469e-22)
(-0.174424 0.00266558 -1.07934e-21)
(-0.183965 0.00259103 9.22372e-22)
(-0.193698 0.00251409 2.05754e-21)
(-0.203644 0.00243481 -2.19177e-21)
(-0.213828 0.00235331 -6.11371e-22)
(-0.224279 0.00226959 6.82439e-22)
(-0.235026 0.00218342 4.46447e-22)
(-0.246097 0.0020942 -4.6552e-22)
(-0.257512 0.00200092 1.09975e-22)
(-0.269273 0.00190208 -2.0159e-21)
(-0.281361 0.00179569 1.01904e-21)
(-0.293719 0.00167915 9.31273e-22)
(-0.306241 0.00154932 -1.34913e-21)
(-0.318758 0.00140191 2.40806e-21)
(-0.331017 0.00123274 -3.25658e-23)
(-0.34267 0.00103641 -3.31675e-21)
(-0.353261 0.000808293 2.16949e-21)
(-0.362208 0.000540972 1.12825e-21)
(-0.368789 0.000229324 -1.95432e-21)
(-0.372098 -0.000124313 6.67112e-22)
(-0.371324 -0.000535744 1.19794e-21)
(-0.365425 -0.0010075 7.70248e-23)
(-0.353641 -0.00151482 -8.2947e-22)
(-0.334721 -0.00209055 9.04708e-22)
(-0.308791 -0.00265659 1.51857e-21)
(-0.274229 -0.00329863 -8.3386e-23)
(-0.232914 -0.00382266 -8.81479e-22)
(-0.183264 -0.00450953 2.51651e-22)
(-0.126083 -0.00480177 3.33183e-22)
(-0.0687922 -0.00564084 -2.21829e-22)
(0.00931468 -0.00546701 1.99231e-22)
(0.0580877 -0.00652577 -1.92063e-22)
(0.168518 -0.00606442 -4.67264e-23)
(0.189334 -0.00694553 -1.48929e-23)
(0.346246 -0.00733347 2.19555e-23)
(-0.109728 0.00917353 -3.46185e-20)
(-0.118219 0.00905322 1.48791e-20)
(-0.126742 0.00885467 3.52159e-21)
(-0.135376 0.00865487 1.34457e-20)
(-0.144132 0.00846184 -7.70812e-21)
(-0.153012 0.0082804 1.24769e-21)
(-0.162031 0.00810828 -8.23514e-21)
(-0.171201 0.00794296 -2.2623e-21)
(-0.180533 0.00778371 -2.00035e-21)
(-0.190045 0.00763114 -2.61709e-21)
(-0.199754 0.00748653 1.92069e-20)
(-0.209685 0.00735085 -2.51255e-20)
(-0.219866 0.00722407 4.32632e-21)
(-0.230326 0.00710442 1.67067e-20)
(-0.241092 0.0069879 -1.4693e-20)
(-0.252181 0.00686777 -1.89866e-22)
(-0.263598 0.00673418 1.2369e-20)
(-0.275323 0.00657377 2.68142e-21)
(-0.287299 0.00636952 -1.00155e-20)
(-0.299423 0.00610063 -1.61817e-21)
(-0.311525 0.00574205 7.25187e-21)
(-0.323358 0.00526694 -1.18241e-21)
(-0.334574 0.00464518 1.28717e-21)
(-0.344723 0.00384994 1.63863e-22)
(-0.353229 0.00285138 -4.38755e-21)
(-0.359375 0.00163019 2.45612e-23)
(-0.362265 0.000190763 -9.73008e-23)
(-0.361102 -0.00151117 3.00718e-21)
(-0.354836 -0.00344233 -1.16331e-21)
(-0.342742 -0.00549896 2.83271e-21)
(-0.323542 -0.00773921 3.70851e-22)
(-0.297435 -0.00987236 -3.56989e-22)
(-0.262704 -0.0121232 1.67623e-22)
(-0.221399 -0.0138613 1.55888e-21)
(-0.171709 -0.0159163 -1.12548e-21)
(-0.11474 -0.0166311 1.50224e-22)
(-0.0575147 -0.0187517 -3.4127e-22)
(0.0200677 -0.0178756 -4.09878e-22)
(0.0688416 -0.0203227 1.40246e-22)
(0.17835 -0.0185267 -2.35876e-23)
(0.199365 -0.0205194 2.8374e-23)
(0.354807 -0.0209494 -2.27563e-23)
(-0.105819 0.0149929 2.45413e-20)
(-0.114017 0.014801 -4.47125e-20)
(-0.122176 0.0144883 2.79746e-20)
(-0.130452 0.0141717 6.17041e-21)
(-0.138857 0.013863 4.89144e-21)
(-0.147381 0.0135724 -2.19908e-20)
(-0.15603 0.0132976 1.30966e-20)
(-0.164813 0.0130358 -1.94092e-20)
(-0.173735 0.012787 4.65431e-20)
(-0.182811 0.0125531 -3.14353e-20)
(-0.192056 0.012337 1.63909e-20)
(-0.201491 0.0121407 -4.16552e-21)
(-0.211144 0.0119644 3.81573e-21)
(-0.22104 0.011805 -4.18853e-21)
(-0.231206 0.0116553 -1.41679e-20)
(-0.241657 0.0115031 7.44587e-21)
(-0.252398 0.0113304 -1.07197e-20)
(-0.263408 0.0111129 5.23557e-21)
(-0.274632 0.0108192 -3.30219e-21)
(-0.285969 0.0104113 -3.02927e-21)
(-0.297252 0.00984363 6.47766e-21)
(-0.308239 0.00906692 1.00572e-21)
(-0.318589 0.0080265 -2.44336e-22)
(-0.32786 0.00667308 -4.90993e-21)
(-0.335488 0.00495435 1.09877e-20)
(-0.340764 0.00283732 -2.60892e-21)
(-0.342822 0.000333339 -1.61201e-21)
(-0.340887 -0.00264151 3.48348e-21)
(-0.333893 -0.00601075 -5.79613e-21)
(-0.321191 -0.00959189 -3.77095e-21)
(-0.301451 -0.0134697 5.92245e-21)
(-0.275017 -0.0171448 -6.16029e-21)
(-0.239983 -0.0209747 1.54514e-22)
(-0.198739 -0.0239012 8.57636e-22)
(-0.149028 -0.0272985 2.21657e-21)
(-0.0925267 -0.0284192 6.52081e-22)
(-0.0355005 -0.0318308 8.08782e-22)
(0.0410199 -0.0301841 5.71739e-22)
(0.089692 -0.0339822 -5.59753e-23)
(0.197388 -0.0309112 7.6795e-23)
(0.218714 -0.0339453 2.54662e-23)
(0.371293 -0.0343936 -2.23971e-22)
(-0.0999639 0.0204703 1.52465e-21)
(-0.107739 0.020214 -1.71556e-20)
(-0.115372 0.0198075 3.17139e-20)
(-0.123129 0.0193896 -8.35734e-21)
(-0.131025 0.0189728 -1.74447e-20)
(-0.139029 0.0185745 3.89028e-20)
(-0.147142 0.0181944 -1.74942e-20)
(-0.155361 0.0178306 -3.4105e-20)
(-0.163689 0.0174845 8.91093e-21)
(-0.172132 0.0171602 1.46135e-21)
(-0.180704 0.0168627 -7.88015e-21)
(-0.189422 0.0165955 2.49045e-20)
(-0.198309 0.0163592 6.79444e-21)
(-0.20739 0.0161498 -9.47138e-21)
(-0.216686 0.0159574 -3.36244e-22)
(-0.226214 0.0157646 -1.36142e-20)
(-0.235975 0.0155457 2.80284e-20)
(-0.24595 0.0152658 -1.32669e-20)
(-0.256085 0.0148798 -1.62286e-20)
(-0.26628 0.0143331 1.08186e-20)
(-0.276376 0.0135595 7.25923e-21)
(-0.286136 0.0124883 -1.55477e-21)
(-0.29523 0.0110405 1.03652e-20)
(-0.303229 0.0091441 -9.35122e-21)
(-0.309585 0.00672478 -1.58127e-21)
(-0.313607 0.00373591 -4.24545e-21)
(-0.314466 0.000182112 1.77776e-20)
(-0.311427 -0.00401849 -1.14598e-20)
(-0.303396 -0.0087872 -5.66467e-21)
(-0.289839 -0.0138506 7.04147e-21)
(-0.269348 -0.0193204 -4.52526e-21)
(-0.242482 -0.0244951 2.41741e-21)
(-0.207056 -0.0298552 -1.14862e-21)
(-0.165945 -0.0339273 6.15359e-21)
(-0.116268 -0.0386265 -5.22433e-21)
(-0.0604938 -0.0401236 7.55575e-22)
(-0.00380894 -0.0447655 -2.08424e-21)
(0.0711768 -0.0423886 -8.79686e-22)
(0.119586 -0.047422 -5.16468e-22)
(0.224682 -0.0431581 -1.3386e-22)
(0.246382 -0.0471283 5.74657e-23)
(0.394852 -0.0475589 1.99052e-22)
(-0.0921536 0.0254921 1.06845e-20)
(-0.0993974 0.0251779 4.05024e-20)
(-0.106361 0.024705 -1.57812e-20)
(-0.113457 0.0242072 -6.59261e-20)
(-0.120705 0.0236927 7.89174e-20)
(-0.128048 0.0231895 -4.26687e-21)
(-0.135476 0.0227011 -2.48476e-20)
(-0.142978 0.0222281 2.26964e-20)
(-0.150549 0.0217748 -2.71299e-20)
(-0.158188 0.0213484 2.34438e-20)
(-0.165905 0.0209566 -3.66165e-22)
(-0.173713 0.020605 -1.99575e-20)
(-0.18163 0.0202951 -7.41602e-21)
(-0.189677 0.0200223 8.54634e-21)
(-0.197872 0.0197743 2.77454e-20)
(-0.20623 0.0195293 -4.36393e-21)
(-0.21475 0.0192546 -3.56618e-20)
(-0.223412 0.0189051 2.40466e-20)
(-0.232165 0.018423 -2.51188e-20)
(-0.240913 0.0177375 7.19069e-21)
(-0.249503 0.0167626 -8.06646e-21)
(-0.257708 0.0154071 8.88419e-21)
(-0.265211 0.0135676 1.2101e-20)
(-0.271601 0.0111499 1.04174e-20)
(-0.276354 0.00805765 -2.05699e-20)
(-0.2788 0.00423197 -1.78123e-21)
(-0.278158 -0.000340654 8.90096e-21)
(-0.273743 -0.0057122 7.48089e-21)
(-0.264434 -0.0118267 -1.64912e-20)
(-0.24984 -0.0183144 -4.68331e-21)
(-0.228448 -0.0253133 -2.80428e-21)
(-0.201101 -0.0319297 3.25412e-21)
(-0.165248 -0.0387549 -1.30381e-21)
(-0.12437 -0.0439141 -5.06034e-21)
(-0.074827 -0.049867 -1.83673e-21)
(-0.0200203 -0.0516926 7.4812e-22)
(0.0361248 -0.0574507 -1.16078e-21)
(0.109176 -0.0544736 6.64756e-22)
(0.157146 -0.0605684 -1.70955e-23)
(0.258968 -0.055206 4.12016e-22)
(0.281051 -0.0599828 -1.94118e-22)
(0.424353 -0.0603484 1.13107e-22)
(-0.082341 0.0299686 1.20429e-20)
(-0.088979 0.0295976 -1.2204e-19)
(-0.0951582 0.0290914 5.2273e-20)
(-0.101478 0.0285404 -2.59807e-21)
(-0.107962 0.0279416 4.95738e-20)
(-0.114526 0.0273372 -2.15367e-20)
(-0.121147 0.0267376 2.15795e-21)
(-0.127804 0.0261475 -4.50205e-20)
(-0.134482 0.0255759 5.29303e-20)
(-0.141176 0.0250339 -1.87511e-21)
(-0.147889 0.0245331 -2.01738e-20)
(-0.154629 0.0240814 -1.12137e-20)
(-0.16141 0.0236817 1.37925e-20)
(-0.168247 0.0233294 8.88903e-21)
(-0.175156 0.0230106 2.79715e-20)
(-0.182145 0.0226994 -4.11723e-20)
(-0.189214 0.0223569 -6.22761e-21)
(-0.19634 0.0219291 4.61816e-21)
(-0.203475 0.0213459 -6.25573e-21)
(-0.210528 0.0205219 1.29714e-20)
(-0.217354 0.0193517 1.11515e-20)
(-0.223739 0.0177246 2.00866e-21)
(-0.229381 0.0155135 -3.20353e-20)
(-0.233895 0.0126026 5.24148e-21)
(-0.23678 0.00887293 2.28161e-20)
(-0.237402 0.0042562 -1.22401e-20)
(-0.235026 -0.00128948 -9.1918e-21)
(-0.229035 -0.00776883 1.8958e-20)
(-0.218275 -0.0151616 -1.74548e-20)
(-0.202531 -0.0230019 2.16124e-20)
(-0.180151 -0.0314514 8.94843e-21)
(-0.152327 -0.0394388 -6.64469e-21)
(-0.116067 -0.0476509 -1.2833e-22)
(-0.0755441 -0.0538335 -1.36723e-21)
(-0.0262788 -0.0609763 -6.08621e-22)
(0.0273335 -0.0630708 4.80376e-21)
(0.0827111 -0.06986 2.52833e-21)
(0.153491 -0.0663423 -1.27743e-21)
(0.200827 -0.0733524 1.39676e-21)
(0.298817 -0.0669931 -3.96121e-22)
(0.321243 -0.0724333 -1.6612e-22)
(0.458517 -0.0726777 -2.14809e-22)
(-0.0704172 0.0338445 3.05064e-20)
(-0.0764238 0.0334013 -4.2993e-20)
(-0.0817338 0.032899 -4.09878e-20)
(-0.0871922 0.0323255 -7.82684e-21)
(-0.0928297 0.0316583 7.98824e-20)
(-0.0985245 0.0309577 -1.15169e-19)
(-0.104243 0.0302443 5.96618e-20)
(-0.109955 0.0295293 3.36578e-20)
(-0.115637 0.0288277 8.98506e-21)
(-0.121278 0.0281562 -4.05139e-20)
(-0.126875 0.0275308 3.58356e-20)
(-0.13243 0.0269622 -2.68186e-20)
(-0.137953 0.0264553 6.72415e-21)
(-0.143453 0.026006 1.11916e-20)
(-0.14894 0.025599 4.44243e-21)
(-0.154418 0.0252057 -6.23746e-20)
(-0.159882 0.0247818 3.03552e-20)
(-0.165311 0.0242654 1.7285e-20)
(-0.170655 0.0235753 -3.5241e-20)
(-0.175833 0.0226131 1.69363e-20)
(-0.180704 0.0212543 2.25557e-20)
(-0.185074 0.0193707 6.54238e-21)
(-0.188658 0.0168119 -2.25594e-21)
(-0.191097 0.0134418 1.19795e-21)
(-0.191923 0.00911678 3.94555e-21)
(-0.190545 0.00376203 1.98785e-21)
(-0.186272 -0.00269612 6.65254e-21)
(-0.178571 -0.0102109 -1.55988e-20)
(-0.166257 -0.0188022 4.63567e-22)
(-0.149308 -0.0279117 -1.05636e-20)
(-0.125911 -0.0377196 1.26918e-20)
(-0.0976563 -0.0469992 -1.1588e-21)
(-0.0610607 -0.0565076 -6.24112e-21)
(-0.0210277 -0.0636611 -9.35606e-21)
(0.0277831 -0.0718695 7.82723e-21)
(0.0799908 -0.0742164 -3.52929e-21)
(0.134355 -0.0819424 4.4464e-21)
(0.202574 -0.0779237 -5.35834e-22)
(0.249071 -0.0857104 -4.09145e-22)
(0.342778 -0.0784585 -4.47343e-24)
(0.365462 -0.0844152 3.60522e-22)
(0.496043 -0.0844757 3.37948e-22)
(-0.0561786 0.0371054 -1.12299e-19)
(-0.0616003 0.0365435 9.06896e-21)
(-0.0659882 0.0360862 1.44969e-20)
(-0.0705381 0.0355225 4.77518e-20)
(-0.0752788 0.0348041 -7.24947e-20)
(-0.0800466 0.0340126 -1.85512e-20)
(-0.0847976 0.0331832 3.67346e-20)
(-0.0894958 0.0323358 -1.10141e-20)
(-0.0941111 0.0314934 -2.33976e-20)
(-0.0986261 0.0306789 2.18019e-20)
(-0.103033 0.0299139 5.63116e-21)
(-0.107331 0.0292121 -2.30997e-20)
(-0.111521 0.0285804 2.61047e-20)
(-0.115607 0.028016 -1.79904e-20)
(-0.119592 0.0275029 5.75554e-22)
(-0.123475 0.0270104 5.73692e-20)
(-0.127245 0.02649 -4.18396e-20)
(-0.13088 0.0258733 1.4517e-20)
(-0.13433 0.0250693 -1.32287e-20)
(-0.137519 0.0239687 1.52572e-20)
(-0.140319 0.0224284 -6.4565e-20)
(-0.14255 0.0203049 3.0208e-20)
(-0.143949 0.017425 2.43073e-20)
(-0.144189 0.013634 -6.76935e-21)
(-0.142836 0.00876177 1.09956e-21)
(-0.139349 0.00273715 -1.50462e-21)
(-0.133082 -0.00456853 -2.08793e-20)
(-0.1236 -0.0130391 -4.00075e-21)
(-0.109681 -0.0227417 2.91302e-21)
(-0.0915214 -0.0330279 3.63759e-21)
(-0.0671236 -0.0440914 3.90871e-21)
(-0.0385167 -0.0545775 6.8883e-21)
(-0.00169744 -0.0652753 -1.54548e-21)
(0.0377145 -0.0733144 1.01331e-20)
(0.0858723 -0.0825058 -1.28524e-21)
(0.136463 -0.085081 -6.2575e-21)
(0.189579 -0.0936406 1.39254e-21)
(0.254977 -0.0891604 -1.72668e-21)
(0.300435 -0.0975847 -2.15448e-21)
(0.389492 -0.0895439 -1.45688e-22)
(0.412321 -0.0958735 9.93547e-23)
(0.535711 -0.0956844 1.42732e-22)
(-0.0392956 0.0396991 1.38667e-20)
(-0.0442741 0.0390139 -6.33067e-20)
(-0.0477199 0.0386468 3.46238e-20)
(-0.0513569 0.0381181 3.0835e-21)
(-0.0551896 0.0373643 -1.44134e-20)
(-0.0590066 0.0364863 1.01101e-19)
(-0.0627574 0.0355384 1.35241e-20)
(-0.0664046 0.0345521 -5.25107e-20)
(-0.0699149 0.0335594 -4.18166e-20)
(-0.0732673 0.0325899 5.45238e-20)
(-0.0764511 0.0316724 -4.5581e-20)
(-0.0794609 0.0308226 3.86223e-20)
(-0.0822915 0.0300501 -4.50304e-20)
(-0.0849392 0.0293531 -3.95513e-21)
(-0.0873991 0.028716 7.22274e-22)
(-0.0896625 0.0281067 9.20005e-20)
(-0.0917136 0.0274739 -1.43384e-20)
(-0.0935247 0.026744 1.13906e-20)
(-0.0950461 0.0258175 -2.90559e-22)
(-0.0962086 0.0245783 -9.78513e-21)
(-0.0968919 0.0228625 -2.08132e-21)
(-0.0969332 0.0205158 -2.02778e-20)
(-0.0960929 0.0173423 4.58004e-20)
(-0.0940804 0.0131708 1.19798e-20)
(-0.0904899 0.00780867 -2.28584e-20)
(-0.0848518 0.00127471 1.55818e-20)
(-0.0765509 -0.00689375 -2.35452e-20)
(-0.0652665 -0.0162417 2.10921e-20)
(-0.0497398 -0.0269562 -7.70004e-21)
(-0.0304003 -0.0383263 6.71025e-21)
(-0.00505242 -0.0505401 -5.14209e-21)
(0.0238133 -0.0621089 -3.91692e-21)
(0.0607251 -0.0739019 1.43088e-20)
(0.0993647 -0.0827161 -2.21518e-21)
(0.146667 -0.0928599 2.95616e-21)
(0.195449 -0.0956007 2.45659e-21)
(0.24709 -0.104896 -3.72193e-21)
(0.309429 -0.0999977 2.0147e-21)
(0.353661 -0.108923 1.74553e-21)
(0.437768 -0.100194 4.02757e-22)
(0.460608 -0.106763 5.88682e-22)