/*--------------------------------*- C++ -*----------------------------------*\
  =========                 |
  \\      /  F ield         | OpenFOAM: The Open Source CFD Toolbox
   \\    /   O peration     | Website:  https://openfoam.org
    \\  /    A nd           | Version:  7
     \\/     M anipulation  |
\*---------------------------------------------------------------------------*/
FoamFile
{
    version     2.0;
    format      ascii;
    class       volScalarField;
    location    "30";
    object      p;
}
// * * * * * * * * * * * * * * * * * * * * * * * * * * * * * * * * * * * * * //

dimensions      [0 2 -2 0 0 0 0];

internalField   nonuniform List<scalar> 
12772
(
-0.209103
-0.211065
-0.211988
-0.212736
-0.213381
-0.213948
-0.21446
-0.214922
-0.215331
-0.215696
-0.209282
-0.211223
-0.212132
-0.212868
-0.213499
-0.214052
-0.214548
-0.214993
-0.21538
-0.215709
-0.209654
-0.21155
-0.212435
-0.213145
-0.21375
-0.214275
-0.214741
-0.215153
-0.2155
-0.215761
-0.210212
-0.212043
-0.21289
-0.213562
-0.214128
-0.214612
-0.215032
-0.215394
-0.215683
-0.215836
-0.210947
-0.212695
-0.213492
-0.214113
-0.214626
-0.215053
-0.215411
-0.215706
-0.21592
-0.215917
-0.211849
-0.213497
-0.214232
-0.214788
-0.215233
-0.215589
-0.215866
-0.216073
-0.216196
-0.215973
-0.212907
-0.21444
-0.215099
-0.215577
-0.215939
-0.216208
-0.216386
-0.216481
-0.216503
-0.21597
-0.214107
-0.215512
-0.216086
-0.216471
-0.216733
-0.216897
-0.216955
-0.216912
-0.216829
-0.215859
-0.215439
-0.216706
-0.21718
-0.217457
-0.217604
-0.217645
-0.217564
-0.217347
-0.217176
-0.215563
-0.216891
-0.218012
-0.218375
-0.218528
-0.218541
-0.218442
-0.218201
-0.217773
-0.217571
-0.214989
-0.218455
-0.219423
-0.219661
-0.219673
-0.219535
-0.219278
-0.218859
-0.218168
-0.218042
-0.214219
-0.220128
-0.220936
-0.221035
-0.220888
-0.220578
-0.220146
-0.219532
-0.218512
-0.218272
-0.213493
-0.221908
-0.222549
-0.222492
-0.222166
-0.221666
-0.22104
-0.220224
-0.218999
-0.218377
-0.212487
-0.223799
-0.224265
-0.224034
-0.223507
-0.222794
-0.221956
-0.220912
-0.21947
-0.218542
-0.211195
-0.225811
-0.226091
-0.225666
-0.224911
-0.223962
-0.222895
-0.221609
-0.219938
-0.218731
-0.209728
-0.227961
-0.228041
-0.227395
-0.226384
-0.225171
-0.223854
-0.222314
-0.220441
-0.218848
-0.208258
-0.230271
-0.230131
-0.229234
-0.227936
-0.226429
-0.224836
-0.22302
-0.221013
-0.218781
-0.206964
-0.232771
-0.232385
-0.231205
-0.229585
-0.227749
-0.22585
-0.223725
-0.221687
-0.21833
-0.205955
-0.235499
-0.234827
-0.233337
-0.231352
-0.229152
-0.226917
-0.224447
-0.222494
-0.217398
-0.205989
-0.238502
-0.237497
-0.235657
-0.233271
-0.23067
-0.228067
-0.22522
-0.223383
-0.216368
-0.210369
-0.241832
-0.240435
-0.238203
-0.235379
-0.232342
-0.22934
-0.226084
-0.224155
-0.215894
-0.221525
-0.245536
-0.24369
-0.241021
-0.237722
-0.234218
-0.230781
-0.227092
-0.224689
-0.216161
-0.220623
-0.249676
-0.247306
-0.244157
-0.240351
-0.236351
-0.23244
-0.228283
-0.22509
-0.216674
-0.217852
-0.25431
-0.251332
-0.247659
-0.243317
-0.238796
-0.234361
-0.229667
-0.225518
-0.217061
-0.21514
-0.259492
-0.255816
-0.251578
-0.246672
-0.2416
-0.23658
-0.231239
-0.226014
-0.217204
-0.212396
-0.265272
-0.260802
-0.255962
-0.250464
-0.2448
-0.239113
-0.232988
-0.226558
-0.21703
-0.209723
-0.271691
-0.266333
-0.260854
-0.254734
-0.248421
-0.241962
-0.234885
-0.227095
-0.216517
-0.207051
-0.278781
-0.272443
-0.266294
-0.259514
-0.252471
-0.245105
-0.236877
-0.227547
-0.215657
-0.204304
-0.286561
-0.279158
-0.272312
-0.264822
-0.25694
-0.248498
-0.238884
-0.227822
-0.214442
-0.201405
-0.295033
-0.286492
-0.278924
-0.270656
-0.261798
-0.252064
-0.240799
-0.227832
-0.21286
-0.198287
-0.30418
-0.294444
-0.286126
-0.276989
-0.266981
-0.255693
-0.242505
-0.227497
-0.210891
-0.194893
-0.313962
-0.302992
-0.29389
-0.283766
-0.272389
-0.259242
-0.243881
-0.226741
-0.208507
-0.191167
-0.32431
-0.312086
-0.302155
-0.290896
-0.277882
-0.262552
-0.244808
-0.225498
-0.205675
-0.187061
-0.335124
-0.321647
-0.310825
-0.298249
-0.283279
-0.265451
-0.245175
-0.223702
-0.202352
-0.182525
-0.346269
-0.331558
-0.319764
-0.305648
-0.28837
-0.26777
-0.244875
-0.221289
-0.198491
-0.177508
-0.357573
-0.341664
-0.328798
-0.312872
-0.292929
-0.269346
-0.24381
-0.218193
-0.194038
-0.171962
-0.368826
-0.351771
-0.337706
-0.319666
-0.296725
-0.270021
-0.241882
-0.21435
-0.188938
-0.165838
-0.379782
-0.361645
-0.346231
-0.325747
-0.299531
-0.26965
-0.238998
-0.20969
-0.183132
-0.159091
-0.39016
-0.371017
-0.35408
-0.330821
-0.30113
-0.268095
-0.235071
-0.204146
-0.176561
-0.151679
-0.399654
-0.379588
-0.36093
-0.334597
-0.30132
-0.265232
-0.230014
-0.19765
-0.16917
-0.143563
-0.407935
-0.387037
-0.366448
-0.336794
-0.299919
-0.260945
-0.223748
-0.190137
-0.160905
-0.134707
-0.414663
-0.393027
-0.370297
-0.337153
-0.296763
-0.255132
-0.216198
-0.181547
-0.151717
-0.12508
-0.419495
-0.397215
-0.372153
-0.335442
-0.29171
-0.247701
-0.207296
-0.171825
-0.141572
-0.114667
-0.422098
-0.399268
-0.371718
-0.33146
-0.284641
-0.238574
-0.196982
-0.16092
-0.130441
-0.103463
-0.422153
-0.398863
-0.368726
-0.32504
-0.275461
-0.22769
-0.185204
-0.148787
-0.118285
-0.091415
-0.419372
-0.395711
-0.362955
-0.316054
-0.2641
-0.215005
-0.171929
-0.135392
-0.105035
-0.0783344
-0.413499
-0.389554
-0.354229
-0.30441
-0.250516
-0.200493
-0.157144
-0.120732
-0.0906335
-0.0639072
-0.404322
-0.380187
-0.342419
-0.290056
-0.234689
-0.184146
-0.140847
-0.104824
-0.0751432
-0.048121
-0.391678
-0.367455
-0.327443
-0.272974
-0.216625
-0.165971
-0.123044
-0.0876855
-0.058672
-0.0321226
-0.375454
-0.35126
-0.309266
-0.253184
-0.196355
-0.145994
-0.103774
-0.0693852
-0.0410659
-0.0156604
-0.355596
-0.33156
-0.287901
-0.23074
-0.173935
-0.124272
-0.0831458
-0.0499161
-0.0224913
0.00149782
-0.332103
-0.308367
-0.263414
-0.205736
-0.149447
-0.100913
-0.0611705
-0.0293246
-0.00305226
0.0193705
-0.305027
-0.281759
-0.235945
-0.178275
-0.12298
-0.0759824
-0.0379205
-0.00769444
0.0171821
0.0378716
-0.274475
-0.251876
-0.2057
-0.148417
-0.0946491
-0.0495743
-0.0134917
0.0148854
0.0381431
0.0568904
-0.240615
-0.218929
-0.172786
-0.116285
-0.064615
-0.02182
0.0120026
0.0383199
0.0597579
0.0763414
-0.203675
-0.183205
-0.136891
-0.0823823
-0.0330628
0.00713499
0.038437
0.0625087
0.0819427
0.09612
-0.163871
-0.144931
-0.0985341
-0.0467273
-0.000186963
0.0371305
0.0656877
0.0873574
0.104546
0.115842
-0.121404
-0.103719
-0.0588372
-0.00958585
0.0338272
0.0680073
0.0936528
0.112796
0.127289
0.134662
-0.0766686
-0.0604788
-0.0176362
0.0287668
0.0687725
0.0996057
0.122242
0.138754
0.149909
0.152129
-0.0301291
-0.0154814
0.0248904
0.0680664
0.104422
0.131749
0.151308
0.165037
0.172448
0.17026
0.0179399
0.0308371
0.0684361
0.108042
0.140538
0.164233
0.180605
0.191257
0.194911
0.193821
0.0671317
0.0780794
0.112653
0.148411
0.17688
0.196838
0.209872
0.217242
0.217914
0.217506
0.117018
0.125855
0.157182
0.188879
0.213198
0.229341
0.238937
0.243055
0.24117
0.239898
0.167168
0.173766
0.201662
0.229148
0.249237
0.261517
0.267626
0.268563
0.264261
0.261371
0.217146
0.221413
0.245737
0.268916
0.284744
0.293148
0.295771
0.293596
0.286868
0.281936
0.266521
0.268393
0.289054
0.307888
0.319465
0.32402
0.323196
0.317978
0.308814
0.301646
0.314864
0.314311
0.331268
0.345771
0.353153
0.353925
0.349724
0.341538
0.329956
0.320467
0.361757
0.35878
0.372042
0.382282
0.385569
0.382659
0.375178
0.36412
0.350171
0.338344
0.406793
0.401428
0.411055
0.417148
0.41648
0.410024
0.399391
0.38558
0.369344
0.355205
0.449585
0.441898
0.447999
0.450108
0.445666
0.435832
0.422202
0.405777
0.387361
0.370974
0.489763
0.479851
0.482581
0.480917
0.472916
0.459906
0.443459
0.424584
0.404117
0.385573
0.526983
0.514971
0.514533
0.509344
0.498037
0.482078
0.463019
0.441879
0.419508
0.398929
0.560926
0.546969
0.543602
0.535179
0.520848
0.502196
0.480753
0.45755
0.433442
0.410973
0.5913
0.575579
0.569564
0.55823
0.541186
0.520119
0.496542
0.471495
0.445829
0.421644
0.617847
0.600566
0.592214
0.578324
0.558905
0.535726
0.510281
0.483624
0.456595
0.430889
0.640339
0.621722
0.611377
0.595314
0.573879
0.548907
0.521878
0.493858
0.465672
0.438661
0.658583
0.638874
0.626903
0.609072
0.586
0.559573
0.531258
0.502132
0.473003
0.444921
0.672423
0.65188
0.63867
0.619495
0.595181
0.567649
0.538357
0.508391
0.478544
0.449636
0.681739
0.660631
0.646585
0.626505
0.601354
0.573079
0.543129
0.512597
0.482266
0.452799
0.686449
0.665053
0.650585
0.630047
0.604473
0.575821
0.545539
0.514722
0.484153
0.454423
0.686511
0.665109
0.650635
0.630091
0.604511
0.575854
0.545566
0.514744
0.484173
0.454456
0.681922
0.660795
0.646734
0.626636
0.601465
0.573171
0.543202
0.512653
0.482308
0.452833
0.672719
0.652144
0.638909
0.619703
0.595356
0.567791
0.538465
0.508467
0.478591
0.449655
0.658978
0.639227
0.62722
0.609345
0.586226
0.559751
0.531387
0.502215
0.473045
0.444925
0.640816
0.622148
0.611757
0.595637
0.574141
0.549107
0.522017
0.493941
0.465704
0.43865
0.618387
0.601047
0.592641
0.578683
0.55919
0.535937
0.51042
0.4837
0.456616
0.430864
0.591882
0.576099
0.570022
0.558609
0.541481
0.520332
0.496676
0.471562
0.445839
0.421608
0.561528
0.547508
0.544076
0.535567
0.521145
0.502403
0.480879
0.457607
0.433442
0.410928
0.527587
0.515513
0.515008
0.509729
0.498327
0.482276
0.463135
0.441927
0.419502
0.398878
0.490351
0.48038
0.483045
0.48129
0.473193
0.460091
0.443564
0.424625
0.404106
0.385518
0.450142
0.442402
0.44844
0.450461
0.445925
0.436003
0.422297
0.405812
0.387347
0.370916
0.407306
0.401896
0.411466
0.417476
0.416719
0.41018
0.399477
0.385609
0.369327
0.355145
0.362216
0.359203
0.372416
0.38258
0.385785
0.382799
0.375254
0.364145
0.350154
0.338281
0.315263
0.314681
0.331599
0.346036
0.353345
0.354049
0.34979
0.341559
0.329937
0.3204
0.266855
0.268706
0.289339
0.308118
0.319631
0.324128
0.323253
0.317996
0.308795
0.301574
0.217412
0.221666
0.245974
0.26911
0.284885
0.293239
0.295819
0.293612
0.28685
0.28186
0.167364
0.173959
0.201849
0.229304
0.249353
0.261592
0.267665
0.268577
0.264249
0.261291
0.117146
0.125987
0.157319
0.188999
0.213288
0.229401
0.238968
0.243066
0.24117
0.239828
0.067193
0.0781517
0.112741
0.148494
0.176945
0.196883
0.209894
0.21725
0.217931
0.217477
0.0179376
0.0308513
0.0684764
0.108089
0.140578
0.164262
0.180621
0.191259
0.194944
0.193902
-0.0301915
-0.0155227
0.0248844
0.0680776
0.104437
0.131763
0.151317
0.165039
0.172492
0.170475
-0.0767871
-0.0605726
-0.0176867
0.0287435
0.0687632
0.0996038
0.122244
0.138755
0.149943
0.152302
-0.121575
-0.103862
-0.05893
-0.00964264
0.033793
0.0679876
0.0936434
0.11279
0.1273
0.134748
-0.164088
-0.145119
-0.0986675
-0.0468167
-0.000246119
0.0370915
0.0656628
0.0873382
0.104534
0.115871
-0.203936
-0.183434
-0.137063
-0.0825032
-0.0331469
0.00707576
0.0383946
0.062474
0.0819138
0.0961187
-0.240913
-0.219196
-0.172994
-0.116436
-0.0647236
-0.0218996
0.0119424
0.0382696
0.059714
0.0763184
-0.274808
-0.252176
-0.205941
-0.148597
-0.0947816
-0.0496741
-0.0135697
0.0148197
0.0380846
0.0568485
-0.30539
-0.28209
-0.236215
-0.178481
-0.123136
-0.076102
-0.0380159
-0.00777549
0.0171097
0.0378136
-0.332492
-0.308725
-0.263712
-0.205968
-0.149625
-0.101052
-0.061283
-0.0294207
-0.00313801
0.0192988
-0.356007
-0.33194
-0.288223
-0.230995
-0.174134
-0.124429
-0.0832747
-0.0500267
-0.0225895
0.00141421
-0.375883
-0.351661
-0.30961
-0.25346
-0.196573
-0.146169
-0.103919
-0.0695095
-0.041176
-0.0157548
-0.392121
-0.367871
-0.327806
-0.27327
-0.216862
-0.166163
-0.123204
-0.0878229
-0.0587935
-0.0322271
-0.404777
-0.380615
-0.342798
-0.290369
-0.234943
-0.184354
-0.141021
-0.104974
-0.0752759
-0.0482352
-0.413961
-0.389993
-0.354621
-0.304739
-0.250785
-0.200715
-0.157332
-0.120894
-0.0907768
-0.0640318
-0.419839
-0.396155
-0.363357
-0.316396
-0.264384
-0.215241
-0.17213
-0.135567
-0.105189
-0.0784695
-0.422623
-0.399311
-0.369135
-0.325394
-0.275757
-0.227939
-0.185417
-0.148972
-0.118449
-0.09156
-0.422567
-0.399717
-0.372132
-0.331823
-0.284949
-0.238835
-0.197206
-0.161117
-0.130615
-0.103617
-0.419961
-0.397663
-0.37257
-0.335812
-0.292028
-0.247972
-0.207531
-0.172032
-0.141756
-0.114831
-0.415124
-0.393471
-0.370714
-0.337528
-0.297089
-0.255413
-0.216443
-0.181763
-0.151911
-0.125253
-0.40839
-0.387476
-0.366864
-0.337172
-0.300252
-0.261235
-0.224002
-0.190363
-0.161108
-0.13489
-0.400101
-0.38002
-0.361343
-0.334977
-0.301659
-0.26553
-0.230277
-0.197885
-0.169383
-0.143756
-0.390598
-0.371441
-0.354487
-0.331201
-0.301472
-0.2684
-0.235342
-0.20439
-0.176783
-0.151881
-0.38021
-0.362061
-0.346633
-0.326124
-0.299876
-0.26996
-0.239277
-0.209942
-0.183363
-0.159303
-0.369245
-0.352178
-0.3381
-0.32004
-0.297071
-0.270336
-0.242167
-0.214611
-0.189178
-0.16606
-0.357981
-0.342061
-0.329183
-0.313242
-0.293275
-0.269664
-0.244102
-0.218462
-0.194288
-0.172195
-0.346666
-0.331945
-0.320142
-0.306011
-0.288715
-0.268091
-0.245173
-0.221565
-0.19875
-0.177751
-0.335511
-0.322024
-0.311194
-0.298606
-0.283621
-0.265773
-0.245477
-0.223986
-0.20262
-0.182779
-0.324686
-0.312454
-0.302515
-0.291247
-0.27822
-0.262875
-0.245114
-0.225789
-0.205953
-0.187327
-0.314329
-0.303351
-0.294242
-0.28411
-0.272723
-0.259564
-0.24419
-0.227039
-0.208794
-0.191446
-0.304538
-0.294795
-0.286471
-0.277326
-0.267309
-0.256013
-0.242817
-0.2278
-0.211187
-0.195184
-0.295382
-0.286835
-0.279261
-0.270986
-0.262121
-0.252382
-0.241112
-0.228141
-0.213166
-0.198591
-0.286902
-0.279493
-0.272642
-0.265145
-0.257258
-0.248812
-0.239197
-0.228136
-0.214758
-0.201723
-0.279116
-0.272772
-0.266618
-0.259831
-0.252783
-0.245415
-0.23719
-0.227865
-0.215983
-0.204636
-0.272019
-0.266657
-0.261172
-0.255045
-0.248727
-0.242268
-0.235196
-0.227418
-0.216853
-0.207398
-0.265595
-0.261121
-0.256274
-0.25077
-0.245102
-0.239416
-0.233298
-0.226884
-0.217376
-0.210085
-0.259812
-0.256131
-0.251887
-0.246974
-0.241898
-0.236879
-0.231549
-0.226343
-0.217561
-0.212774
-0.254627
-0.251644
-0.247965
-0.243616
-0.239091
-0.234659
-0.229977
-0.22585
-0.217428
-0.215535
-0.249992
-0.247616
-0.24446
-0.240648
-0.236644
-0.232737
-0.228593
-0.225426
-0.217052
-0.218266
-0.245852
-0.243999
-0.241324
-0.238018
-0.23451
-0.231078
-0.227403
-0.225031
-0.21655
-0.221058
-0.242149
-0.240744
-0.238506
-0.235674
-0.232635
-0.229638
-0.226399
-0.224503
-0.216293
-0.221985
-0.238821
-0.237806
-0.235959
-0.233567
-0.230965
-0.228369
-0.225539
-0.223739
-0.216778
-0.210851
-0.235819
-0.235136
-0.23364
-0.23165
-0.229449
-0.227223
-0.224773
-0.222856
-0.217818
-0.206479
-0.233092
-0.232694
-0.231508
-0.229883
-0.228049
-0.22616
-0.224057
-0.222056
-0.218758
-0.20645
-0.230592
-0.23044
-0.229537
-0.228235
-0.226731
-0.225149
-0.223356
-0.221388
-0.219216
-0.207465
-0.228281
-0.228347
-0.227696
-0.226682
-0.225474
-0.224169
-0.222655
-0.220821
-0.219289
-0.208763
-0.226128
-0.226394
-0.225963
-0.225207
-0.224263
-0.223211
-0.221951
-0.220321
-0.219174
-0.210235
-0.22411
-0.224562
-0.224327
-0.223799
-0.223092
-0.22227
-0.221252
-0.219853
-0.218977
-0.211702
-0.222211
-0.222837
-0.222777
-0.222451
-0.221958
-0.221349
-0.220559
-0.219382
-0.218804
-0.21299
-0.22042
-0.221214
-0.221309
-0.221164
-0.220862
-0.220447
-0.219861
-0.218898
-0.218686
-0.21398
-0.218734
-0.219688
-0.219923
-0.219938
-0.219808
-0.219569
-0.219175
-0.218528
-0.218483
-0.214665
-0.217153
-0.218262
-0.218622
-0.218777
-0.218799
-0.218718
-0.218502
-0.218113
-0.217975
-0.215427
-0.215682
-0.216938
-0.21741
-0.217689
-0.217845
-0.217902
-0.217846
-0.217665
-0.217547
-0.215984
-0.214329
-0.215724
-0.216295
-0.216683
-0.216953
-0.217132
-0.217214
-0.217204
-0.217169
-0.21625
-0.213104
-0.214628
-0.215286
-0.215767
-0.216136
-0.216418
-0.216617
-0.216743
-0.216807
-0.216324
-0.21202
-0.21366
-0.214393
-0.214952
-0.215404
-0.215772
-0.216068
-0.216302
-0.216461
-0.216283
-0.21109
-0.212832
-0.213627
-0.21425
-0.214768
-0.215207
-0.21558
-0.215897
-0.216141
-0.216177
-0.210324
-0.212151
-0.212997
-0.213671
-0.214241
-0.214733
-0.215166
-0.215546
-0.215859
-0.216044
-0.209735
-0.211628
-0.212512
-0.213223
-0.213832
-0.214363
-0.214838
-0.215263
-0.215628
-0.215911
-0.209332
-0.21127
-0.212179
-0.212915
-0.213549
-0.214105
-0.214607
-0.215059
-0.215457
-0.215801
-0.20912
-0.211081
-0.212004
-0.212752
-0.213397
-0.213965
-0.214479
-0.214944
-0.215357
-0.215727
-0.216132
-0.216433
-0.216735
-0.217033
-0.217323
-0.217602
-0.217865
-0.218103
-0.218308
-0.218469
-0.218575
-0.218612
-0.218569
-0.218429
-0.218176
-0.217793
-0.217257
-0.216543
-0.21562
-0.214451
-0.212997
-0.211197
-0.20899
-0.206302
-0.203044
-0.199101
-0.194402
-0.188846
-0.182237
-0.174541
-0.165523
-0.155334
-0.143564
-0.130778
-0.116329
-0.101146
-0.0850688
-0.0675275
-0.0529039
-0.0314587
-0.0244443
0.0045667
-0.216181
-0.216462
-0.216754
-0.217045
-0.217328
-0.217601
-0.217859
-0.218093
-0.218294
-0.218452
-0.218556
-0.218595
-0.218555
-0.218423
-0.218182
-0.217816
-0.217303
-0.216618
-0.215731
-0.214604
-0.213197
-0.211448
-0.209294
-0.206656
-0.203443
-0.19954
-0.194854
-0.189297
-0.182669
-0.17493
-0.165843
-0.155566
-0.143687
-0.130792
-0.116234
-0.100958
-0.0848231
-0.0672358
-0.0526292
-0.0312287
-0.0243074
0.00451861
-0.216308
-0.216556
-0.216831
-0.217111
-0.217385
-0.217651
-0.217902
-0.21813
-0.218327
-0.218482
-0.218585
-0.218624
-0.218588
-0.218463
-0.218235
-0.217886
-0.217396
-0.216742
-0.215892
-0.21481
-0.213451
-0.211757
-0.209658
-0.207075
-0.20391
-0.20005
-0.19539
-0.189835
-0.18319
-0.175414
-0.166259
-0.1559
-0.143914
-0.130913
-0.116242
-0.100875
-0.084671
-0.0670465
-0.0524441
-0.0310802
-0.024259
0.00437949
-0.216507
-0.216705
-0.216957
-0.217225
-0.217488
-0.217745
-0.217989
-0.218211
-0.218403
-0.218555
-0.218656
-0.218695
-0.218663
-0.218545
-0.218329
-0.217998
-0.217532
-0.216909
-0.216097
-0.215061
-0.213753
-0.212115
-0.210075
-0.207549
-0.204436
-0.20062
-0.195993
-0.190446
-0.183788
-0.175981
-0.166761
-0.156327
-0.144233
-0.131134
-0.116347
-0.100895
-0.0846145
-0.0669587
-0.0523575
-0.0310116
-0.0242933
0.00415654
-0.216764
-0.2169
-0.217124
-0.217378
-0.217629
-0.217876
-0.218112
-0.218328
-0.218515
-0.218662
-0.218761
-0.218801
-0.218772
-0.218661
-0.218457
-0.218143
-0.217702
-0.21711
-0.216338
-0.215348
-0.214093
-0.212513
-0.210533
-0.208067
-0.205008
-0.201239
-0.196648
-0.191115
-0.184447
-0.176614
-0.167333
-0.156831
-0.144633
-0.131442
-0.11654
-0.101008
-0.0846489
-0.0669645
-0.0523746
-0.0310887
-0.0243305
0.00385377
-0.21707
-0.217127
-0.217319
-0.21756
-0.217796
-0.218034
-0.218262
-0.218472
-0.218653
-0.218796
-0.218893
-0.218932
-0.218906
-0.218803
-0.21861
-0.218314
-0.217898
-0.217337
-0.216604
-0.215661
-0.21446
-0.212938
-0.211019
-0.208615
-0.20561
-0.201891
-0.197339
-0.191826
-0.185151
-0.177297
-0.16796
-0.157396
-0.145098
-0.131823
-0.11681
-0.101206
-0.0847701
-0.0670501
-0.0524385
-0.0312736
-0.0244326
0.0034761
-0.217413
-0.217371
-0.217529
-0.217757
-0.21798
-0.218207
-0.218428
-0.218631
-0.218806
-0.218946
-0.21904
-0.219079
-0.219056
-0.218959
-0.218779
-0.2185
-0.218108
-0.217579
-0.216885
-0.215989
-0.214841
-0.213378
-0.211521
-0.209179
-0.206226
-0.20254
-0.198048
-0.192561
-0.185883
-0.178014
-0.168624
-0.158006
-0.145613
-0.132264
-0.117143
-0.101475
-0.0849733
-0.0672208
-0.052571
-0.031513
-0.0245852
0.00303091
-0.217792
-0.217616
-0.217741
-0.217958
-0.218167
-0.218385
-0.218598
-0.218794
-0.218964
-0.2191
-0.219191
-0.219231
-0.21921
-0.219121
-0.218952
-0.218691
-0.218322
-0.217825
-0.217169
-0.21632
-0.215224
-0.21382
-0.212025
-0.209745
-0.206845
-0.203217
-0.198763
-0.193303
-0.186625
-0.178746
-0.169309
-0.158644
-0.146163
-0.132748
-0.117526
-0.101802
-0.0852199
-0.0674745
-0.0527824
-0.0318031
-0.0247649
0.00252704
-0.218243
-0.217846
-0.217941
-0.218151
-0.218347
-0.218554
-0.218759
-0.21895
-0.219115
-0.219246
-0.219335
-0.219375
-0.219358
-0.219275
-0.219118
-0.218875
-0.21853
-0.218063
-0.217446
-0.216641
-0.215598
-0.214251
-0.212517
-0.210298
-0.20745
-0.203914
-0.199467
-0.194036
-0.187361
-0.179477
-0.169997
-0.159294
-0.146731
-0.13326
-0.117946
-0.102173
-0.0855272
-0.0677701
-0.0530573
-0.0321427
-0.0249561
0.00197421
-0.218819
-0.218047
-0.218117
-0.218325
-0.218507
-0.218704
-0.218901
-0.219086
-0.219246
-0.219374
-0.219461
-0.219502
-0.219488
-0.219413
-0.219268
-0.219042
-0.21872
-0.218283
-0.217703
-0.216942
-0.215949
-0.214659
-0.212984
-0.210825
-0.208019
-0.204554
-0.200143
-0.194745
-0.188075
-0.180192
-0.17067
-0.159938
-0.147303
-0.133783
-0.118392
-0.102574
-0.0858802
-0.0681016
-0.05338
-0.0325245
-0.0251466
0.00138272
-0.219209
-0.218301
-0.218271
-0.21847
-0.218641
-0.218824
-0.219009
-0.21919
-0.219345
-0.21947
-0.219557
-0.219599
-0.21959
-0.219523
-0.21939
-0.219181
-0.218883
-0.218474
-0.21793
-0.217212
-0.216268
-0.215031
-0.213415
-0.211314
-0.20853
-0.205151
-0.200774
-0.195411
-0.18875
-0.180869
-0.171322
-0.160562
-0.147867
-0.134305
-0.118849
-0.10299
-0.0862651
-0.0684611
-0.0537374
-0.0329399
-0.0253265
0.000762974
-0.219465
-0.218611
-0.218394
-0.218575
-0.218736
-0.218901
-0.21908
-0.219252
-0.219402
-0.219524
-0.219611
-0.219656
-0.219652
-0.219595
-0.219475
-0.219284
-0.219007
-0.218628
-0.218117
-0.21744
-0.216542
-0.215357
-0.213795
-0.21175
-0.209132
-0.205693
-0.20136
-0.196026
-0.189376
-0.181501
-0.171932
-0.161153
-0.148408
-0.134813
-0.119306
-0.103411
-0.0866707
-0.0688382
-0.0541174
-0.0333812
-0.0254877
0.000124963
-0.219772
-0.218922
-0.218481
-0.218642
-0.218787
-0.218928
-0.219094
-0.219258
-0.219403
-0.219524
-0.219612
-0.219661
-0.219665
-0.219618
-0.219513
-0.219339
-0.219086
-0.218733
-0.218256
-0.217617
-0.216762
-0.215626
-0.214115
-0.212102
-0.209527
-0.206169
-0.201875
-0.196574
-0.189938
-0.182074
-0.172489
-0.161699
-0.148915
-0.135295
-0.119753
-0.103825
-0.0870868
-0.0692235
-0.0545082
-0.0338416
-0.0256243
-0.000522129
-0.220116
-0.219244
-0.218536
-0.218667
-0.218787
-0.218894
-0.219042
-0.219197
-0.219337
-0.219458
-0.21955
-0.219605
-0.219619
-0.219584
-0.219493
-0.219339
-0.219108
-0.218782
-0.218336
-0.217733
-0.216919
-0.215828
-0.214365
-0.21243
-0.209872
-0.206567
-0.202312
-0.197045
-0.190425
-0.182576
-0.172982
-0.162188
-0.149379
-0.13574
-0.12018
-0.104222
-0.0875036
-0.0696086
-0.054899
-0.0343144
-0.0257323
-0.00117021
-0.220481
-0.219591
-0.218567
-0.218645
-0.218722
-0.218783
-0.21891
-0.219054
-0.21919
-0.219313
-0.219411
-0.219476
-0.219501
-0.219481
-0.219408
-0.219273
-0.219064
-0.218765
-0.218348
-0.21778
-0.217004
-0.215953
-0.214524
-0.212664
-0.210133
-0.206878
-0.202659
-0.197427
-0.190827
-0.182998
-0.173402
-0.162611
-0.149789
-0.136137
-0.120579
-0.104592
-0.0879112
-0.0699858
-0.0552795
-0.0347934
-0.025809
-0.00181237
-0.220861
-0.219936
-0.21856
-0.218565
-0.218574
-0.218575
-0.218677
-0.218812
-0.218947
-0.219075
-0.219183
-0.219261
-0.219302
-0.219299
-0.219245
-0.219131
-0.218946
-0.218672
-0.218284
-0.217748
-0.217006
-0.215996
-0.214602
-0.212781
-0.2103
-0.207091
-0.202908
-0.197712
-0.191133
-0.183327
-0.173739
-0.162956
-0.150136
-0.136477
-0.120939
-0.104926
-0.0882988
-0.070347
-0.0556398
-0.0352719
-0.0258528
-0.00244271
-0.221196
-0.220168
-0.218467
-0.218402
-0.218318
-0.218251
-0.21833
-0.218459
-0.218597
-0.218734
-0.218857
-0.218953
-0.219013
-0.219031
-0.218998
-0.218907
-0.218745
-0.218496
-0.218135
-0.217628
-0.216917
-0.215934
-0.214637
-0.212801
-0.210362
-0.207196
-0.203048
-0.197887
-0.191334
-0.183555
-0.173983
-0.163216
-0.150412
-0.136752
-0.121253
-0.105217
-0.0886609
-0.0706879
-0.0559758
-0.0357446
-0.0258664
-0.00305673
-0.221416
-0.220158
-0.218256
-0.218151
-0.217944
-0.217801
-0.217858
-0.217984
-0.218128
-0.218278
-0.218419
-0.218536
-0.218619
-0.21866
-0.21865
-0.218583
-0.218446
-0.218223
-0.217889
-0.217409
-0.216728
-0.21571
-0.214487
-0.212711
-0.210311
-0.207186
-0.203074
-0.197954
-0.191431
-0.183688
-0.174144
-0.163402
-0.150632
-0.13698
-0.121541
-0.105483
-0.0890126
-0.0710187
-0.056299
-0.0362132
-0.0258598
-0.00365357
-0.222313
-0.219874
-0.217877
-0.217726
-0.217351
-0.217125
-0.217165
-0.217296
-0.217456
-0.217629
-0.217797
-0.217945
-0.21806
-0.218132
-0.218154
-0.218118
-0.21801
-0.217817
-0.217511
-0.217062
-0.216416
-0.215589
-0.214227
-0.212496
-0.210137
-0.207058
-0.20299
-0.197918
-0.191438
-0.183742
-0.17424
-0.163535
-0.150817
-0.137176
-0.121814
-0.105733
-0.0893591
-0.0713445
-0.0566065
-0.0366814
-0.0258281
-0.00423775
-0.222125
-0.217509
-0.216509
-0.216608
-0.216171
-0.215963
-0.216061
-0.216256
-0.216477
-0.216708
-0.216934
-0.217138
-0.217308
-0.217432
-0.217502
-0.217509
-0.217443
-0.217287
-0.217015
-0.216594
-0.215949
-0.215098
-0.213844
-0.212157
-0.209831
-0.206786
-0.202749
-0.197709
-0.191259
-0.18359
-0.174126
-0.163439
-0.15078
-0.137144
-0.121877
-0.10579
-0.0895177
-0.0715461
-0.0567549
-0.037103
-0.0256887
-0.00480793
-0.206799
-0.208719
-0.213384
-0.214841
-0.214709
-0.214642
-0.214848
-0.215138
-0.215432
-0.215723
-0.216005
-0.216263
-0.216483
-0.216655
-0.21677
-0.216819
-0.216792
-0.216674
-0.216443
-0.21608
-0.215532
-0.21462
-0.213333
-0.211621
-0.209274
-0.2062
-0.202135
-0.197053
-0.19058
-0.182868
-0.173413
-0.162697
-0.150117
-0.136482
-0.121373
-0.105352
-0.0892342
-0.0714872
-0.0565836
-0.0375222
-0.0253038
-0.00551304
-0.205906
-0.206017
-0.210246
-0.211876
-0.211806
-0.211761
-0.212087
-0.212553
-0.213006
-0.213427
-0.213824
-0.214189
-0.214505
-0.214763
-0.214953
-0.215066
-0.21509
-0.215009
-0.214792
-0.214397
-0.213725
-0.212906
-0.211626
-0.209877
-0.207485
-0.20436
-0.200247
-0.195119
-0.188629
-0.180904
-0.171511
-0.16084
-0.14844
-0.134918
-0.120106
-0.104279
-0.0884551
-0.0710605
-0.0561351
-0.0377822
-0.0248012
-0.00618925
-0.202778
-0.202714
-0.205435
-0.206989
-0.207327
-0.207572
-0.208118
-0.208805
-0.209468
-0.210074
-0.210636
-0.211151
-0.211606
-0.211988
-0.212286
-0.212492
-0.212591
-0.212566
-0.212388
-0.212029
-0.211458
-0.210523
-0.209201
-0.207405
-0.204958
-0.201778
-0.197619
-0.192454
-0.185967
-0.178258
-0.168964
-0.158389
-0.14622
-0.132883
-0.118413
-0.10287
-0.0873674
-0.0704101
-0.055497
-0.0378693
-0.0242854
-0.00670264
-0.197122
-0.19791
-0.199345
-0.200533
-0.201284
-0.201979
-0.202835
-0.203776
-0.204682
-0.205518
-0.206291
-0.207002
-0.207638
-0.208184
-0.208628
-0.208962
-0.209168
-0.209231
-0.20912
-0.208812
-0.208242
-0.207321
-0.205978
-0.204152
-0.201671
-0.198457
-0.194279
-0.189107
-0.182658
-0.175007
-0.165859
-0.155436
-0.143545
-0.130466
-0.116371
-0.101194
-0.0860256
-0.0695789
-0.054704
-0.0378049
-0.0237678
-0.00707077
-0.188992
-0.191203
-0.192137
-0.192951
-0.193949
-0.195085
-0.196295
-0.197506
-0.198662
-0.199743
-0.200752
-0.201684
-0.202526
-0.203263
-0.203881
-0.204368
-0.204708
-0.204883
-0.204862
-0.204617
-0.204082
-0.203204
-0.201863
-0.20003
-0.197541
-0.194324
-0.190162
-0.185023
-0.17866
-0.171118
-0.16217
-0.151964
-0.140401
-0.127656
-0.113971
-0.0992411
-0.0844295
-0.0685489
-0.053765
-0.0375726
-0.0232495
-0.00730539
-0.179078
-0.182771
-0.183841
-0.184511
-0.185666
-0.187173
-0.188738
-0.19023
-0.191628
-0.192943
-0.194181
-0.195333
-0.196382
-0.197312
-0.198108
-0.198757
-0.199239
-0.199538
-0.199618
-0.19945
-0.198973
-0.198135
-0.19685
-0.195036
-0.19257
-0.189382
-0.185279
-0.180217
-0.173989
-0.166614
-0.157917
-0.147997
-0.136808
-0.124472
-0.111232
-0.0970162
-0.0825949
-0.0673154
-0.0526942
-0.0371696
-0.0227302
-0.0074249
-0.168398
-0.173165
-0.174686
-0.17548
-0.176803
-0.178603
-0.180488
-0.182253
-0.183881
-0.185409
-0.186852
-0.188202
-0.18944
-0.190548
-0.191508
-0.192309
-0.192927
-0.193346
-0.193528
-0.193446
-0.193038
-0.192266
-0.19104
-0.189271
-0.186856
-0.183731
-0.179722
-0.174781
-0.168732
-0.161577
-0.153178
-0.143602
-0.132829
-0.120961
-0.1082
-0.0945468
-0.0805538
-0.0658903
-0.0515105
-0.0366082
-0.022207
-0.00745076
-0.157511
-0.162937
-0.165003
-0.166107
-0.167643
-0.169683
-0.171836
-0.173851
-0.175694
-0.177413
-0.179036
-0.18056
-0.181962
-0.183224
-0.184329
-0.185263
-0.186002
-0.186529
-0.186806
-0.186806
-0.186471
-0.185765
-0.184604
-0.182903
-0.180563
-0.177525
-0.173639
-0.168856
-0.163021
-0.156129
-0.148062
-0.138876
-0.128549
-0.11719
-0.104935
-0.091872
-0.0783446
-0.0642958
-0.0502329
-0.0359088
-0.0216751
-0.00740381
-0.146742
-0.152536
-0.155102
-0.156588
-0.158374
-0.160623
-0.162996
-0.16523
-0.167271
-0.169165
-0.170948
-0.172621
-0.174166
-0.175563
-0.176792
-0.17784
-0.178684
-0.179306
-0.179668
-0.179744
-0.179479
-0.178834
-0.17773
-0.176122
-0.173875
-0.170944
-0.167201
-0.162599
-0.157002
-0.150401
-0.142688
-0.13392
-0.124058
-0.11323
-0.1015
-0.0890365
-0.0760061
-0.0625601
-0.0488788
-0.0350958
-0.0211298
-0.00730212
-0.1363
-0.142243
-0.14521
-0.147073
-0.149117
-0.151556
-0.154111
-0.156533
-0.158753
-0.160806
-0.162733
-0.16454
-0.16621
-0.167724
-0.169062
-0.17021
-0.171147
-0.171853
-0.172293
-0.17244
-0.172242
-0.171661
-0.170629
-0.169102
-0.166957
-0.164147
-0.16056
-0.156156
-0.15081
-0.144516
-0.137168
-0.128829
-0.11944
-0.109148
-0.097953
-0.0860843
-0.0735735
-0.0607129
-0.0474629
-0.0341932
-0.0205677
-0.00716021
-0.126264
-0.132216
-0.13548
-0.137674
-0.139958
-0.142567
-0.145275
-0.147856
-0.150232
-0.152431
-0.154488
-0.156414
-0.158195
-0.159814
-0.16125
-0.162489
-0.16351
-0.164292
-0.164805
-0.16502
-0.164889
-0.164378
-0.16342
-0.161975
-0.159937
-0.157259
-0.153837
-0.14964
-0.144551
-0.138569
-0.131589
-0.12368
-0.114763
-0.105
-0.0943411
-0.0830537
-0.0710756
-0.0587817
-0.0459974
-0.033222
-0.0199871
-0.0069892
-0.116663
-0.122538
-0.126009
-0.128471
-0.130963
-0.133718
-0.136552
-0.139263
-0.141773
-0.144099
-0.146273
-0.148306
-0.150188
-0.151901
-0.153426
-0.154748
-0.155847
-0.156703
-0.157285
-0.157568
-0.157506
-0.157067
-0.156187
-0.154829
-0.152902
-0.150363
-0.147113
-0.143129
-0.138298
-0.132629
-0.126014
-0.118527
-0.110075
-0.100828
-0.0906993
-0.0799753
-0.0685343
-0.0567891
-0.0444919
-0.0321986
-0.0193876
-0.00679733
-0.10752
-0.11326
-0.11686
-0.119527
-0.122184
-0.125056
-0.127989
-0.130802
-0.133422
-0.135856
-0.138131
-0.140259
-0.14223
-0.144028
-0.145634
-0.147033
-0.148205
-0.149132
-0.149783
-0.150135
-0.150143
-0.149779
-0.148983
-0.147719
-0.145909
-0.143514
-0.14044
-0.13667
-0.132098
-0.126738
-0.120481