/*--------------------------------*- C++ -*----------------------------------*\
  =========                 |
  \\      /  F ield         | OpenFOAM: The Open Source CFD Toolbox
   \\    /   O peration     | Website:  https://openfoam.org
    \\  /    A nd           | Version:  7
     \\/     M anipulation  |
\*---------------------------------------------------------------------------*/
FoamFile
{
    version     2.0;
    format      ascii;
    class       volVectorField;
    location    "30";
    object      U;
}
// * * * * * * * * * * * * * * * * * * * * * * * * * * * * * * * * * * * * * //

dimensions      [0 1 -1 0 0 0 0];

internalField   nonuniform List<vector> 
12772
(
(-0.00120528 0.000916042 2.90174e-21)
(-0.00671149 0.00212262 1.01843e-20)
(-0.0170307 0.00284744 -3.78775e-21)
(-0.0292615 0.00321117 2.67818e-21)
(-0.0423286 0.00330137 -1.95019e-20)
(-0.0553766 0.00320434 -8.37769e-21)
(-0.0678222 0.00300384 -1.78434e-21)
(-0.0794172 0.00278096 -2.62373e-20)
(-0.0901818 0.00260799 3.41396e-21)
(-0.100339 0.00255419 1.6092e-20)
(-0.00135101 0.00299185 -2.65609e-20)
(-0.00701022 0.00690538 -5.45819e-21)
(-0.0173535 0.00924251 1.6238e-20)
(-0.0295209 0.0104003 -6.08172e-20)
(-0.0424525 0.0106751 -7.55744e-21)
(-0.0553033 0.0103528 1.11796e-20)
(-0.0674938 0.00970189 4.00683e-21)
(-0.0787775 0.008974 7.27119e-20)
(-0.0891719 0.0083878 -5.2571e-20)
(-0.0988637 0.0081465 8.67617e-21)
(-0.00164332 0.00501809 5.10519e-20)
(-0.00760948 0.0115821 -6.93417e-21)
(-0.018001 0.0155026 2.7828e-20)
(-0.0300405 0.0174404 6.23326e-20)
(-0.0426998 0.0178935 1.27474e-19)
(-0.0551544 0.0173409 -9.21205e-20)
(-0.0668328 0.016232 2.41091e-22)
(-0.0774917 0.0149878 -7.08008e-20)
(-0.0871444 0.0139775 8.99863e-20)
(-0.0958989 0.0135448 -8.53949e-20)
(-0.0020751 0.00696311 5.78013e-21)
(-0.00849643 0.0160842 -4.1695e-21)
(-0.0189604 0.0215399 3.1239e-20)
(-0.0308094 0.0242342 -4.48873e-20)
(-0.0430617 0.0248545 -3.4038e-20)
(-0.0549228 0.0240636 1.62079e-19)
(-0.0658322 0.0224842 -4.9695e-20)
(-0.0755505 0.0207046 -1.42732e-19)
(-0.0840889 0.0192522 -4.69757e-20)
(-0.0914167 0.0186209 6.33289e-20)
(-0.00263615 0.00879832 9.76799e-21)
(-0.00965228 0.0203484 4.06873e-20)
(-0.0202125 0.0272715 -8.67753e-20)
(-0.0318102 0.0306884 1.01567e-19)
(-0.0435228 0.0314601 6.69742e-20)
(-0.0545944 0.0304194 -2.49713e-19)
(-0.0644774 0.0283518 2.11934e-19)
(-0.072934 0.0260098 1.27404e-19)
(-0.079983 0.024089 4.35086e-20)
(-0.0853625 0.0232473 -1.40321e-20)
(-0.00331371 0.0104992 -7.08331e-20)
(-0.0110529 0.0243181 -3.17443e-20)
(-0.0217315 0.0326214 2.72817e-20)
(-0.0330183 0.0367161 -2.25368e-19)
(-0.0440596 0.0376178 1.09452e-19)
(-0.0541456 0.0363122 -2.78243e-20)
(-0.0627411 0.0337336 1.55027e-21)
(-0.0696047 0.0307936 2.44698e-20)
(-0.0747845 0.0283687 -5.44103e-20)
(-0.0776385 0.0272972 -3.03502e-20)
(-0.0040932 0.0120459 1.558e-19)
(-0.0126696 0.027945 -1.75984e-20)
(-0.023485 0.037522 1.07276e-19)
(-0.0344 0.0422377 3.66745e-20)
(-0.0446371 0.0432417 -3.14791e-20)
(-0.0535376 0.0416528 -2.48912e-20)
(-0.060577 0.0385362 -1.72484e-20)
(-0.0654969 0.0349538 -4.76064e-20)
(-0.0684206 0.0319778 2.58835e-20)
(-0.0680815 0.0306447 2.00444e-19)
(-0.00495885 0.0134236 -1.65653e-19)
(-0.0144697 0.0311893 1.06763e-19)
(-0.0254339 0.0419145 -1.96551e-19)
(-0.0359114 0.047182 2.29664e-20)
(-0.045205 0.0482543 5.53958e-20)
(-0.052711 0.0463612 2.03419e-19)
(-0.0579101 0.0426767 -9.44306e-20)
(-0.0605028 0.0384011 1.5826e-19)
(-0.0607735 0.0348137 -1.07048e-19)
(-0.0564348 0.0331725 -1.38351e-19)
(-0.00589451 0.0146229 1.37013e-19)
(-0.0164175 0.0340205 -6.5605e-20)
(-0.0275313 0.0457497 -1.61209e-19)
(-0.0374954 0.0514867 1.48217e-20)
(-0.0456932 0.052587 -2.766e-19)
(-0.0515767 0.0503681 -1.66795e-20)
(-0.0546247 0.0460864 1.22525e-20)
(-0.0544522 0.0410637 -7.92462e-20)
(-0.0516576 0.0367889 1.83401e-19)
(-0.0423363 0.0348177 7.32295e-20)
(-0.00688422 0.0156389 -1.06942e-19)
(-0.0184746 0.0364166 -1.64404e-19)
(-0.0297226 0.0489876 4.15755e-19)
(-0.0390795 0.0550986 1.52553e-19)
(-0.046006 0.056181 4.90564e-20)
(-0.0500074 0.0536166 1.06631e-19)
(-0.0505505 0.0487136 -1.19919e-19)
(-0.0470875 0.0428887 1.8921e-20)
(-0.0407455 0.0377874 -3.00079e-19)
(-0.0253709 0.0356819 2.77431e-20)
(-0.00791276 0.0164714 2.89246e-20)
(-0.0206001 0.0383638 8.04959e-20)
(-0.0319436 0.0515974 -5.44739e-19)
(-0.0405723 0.0579739 -7.57868e-20)
(-0.0460158 0.0589879 7.48404e-20)
(-0.0478263 0.0560646 -3.48654e-19)
(-0.0454512 0.0505325 -1.1099e-20)
(-0.0380758 0.0438659 -7.83869e-21)
(-0.0274039 0.0375788 -1.10535e-19)
(-0.00503528 0.03592 1.65542e-20)
(-0.00896599 0.0171237 -2.93899e-20)
(-0.0227509 0.0398551 1.44053e-19)
(-0.0341199 0.053556 3.61172e-19)
(-0.0418595 0.0600766 -1.7432e-19)
(-0.045556 0.0609689 1.31973e-20)
(-0.044793 0.0576866 -1.32834e-19)
(-0.0389966 0.0515557 -3.3595e-20)
(-0.0271001 0.0441104 3.1402e-19)
(-0.0108842 0.0362934 2.54505e-19)
(0.019945 0.0354268 -3.18635e-20)
(-0.010031 0.017602 3.15241e-20)
(-0.0248808 0.040889 6.15831e-20)
(-0.0361643 0.0548474 -3.22921e-19)
(-0.0428006 0.0613787 1.26838e-19)
(-0.0444132 0.0620939 1.33862e-19)
(-0.040588 0.05847 4.62937e-19)
(-0.0306756 0.0518204 2.4865e-19)
(-0.0135003 0.0436732 -1.2402e-19)
(0.00938353 0.0343227 -3.266e-20)
(0.0510343 0.034323 -1.58969e-19)
(-0.011096 0.0179144 2.14499e-19)
(-0.0269399 0.0414682 -3.17438e-19)
(-0.0379752 0.0554616 4.79958e-19)
(-0.0432246 0.0618593 -1.67143e-19)
(-0.0423221 0.0623405 -1.66667e-19)
(-0.0348217 0.0584083 -5.18131e-19)
(-0.0199322 0.0513565 -3.38002e-19)
(0.00366748 0.0426116 1.86257e-19)
(0.0345575 0.0318619 2.76473e-19)
(0.089565 0.0333302 2.85208e-19)
(-0.0121498 0.0180698 -1.88514e-19)
(-0.0288731 0.0415984 -7.94049e-20)
(-0.0394332 0.0553942 1.0845e-20)
(-0.0429256 0.061506 2.08196e-20)
(-0.038959 0.0616975 4.32275e-19)
(-0.0270074 0.0575125 1.68898e-20)
(-0.00607529 0.0502486 3.29281e-19)
(0.0253493 0.0411866 -2.93251e-19)
(0.0661812 0.0290736 -5.68639e-19)
(0.136916 0.0333582 -2.73232e-19)
(-0.0131811 0.018077 6.93121e-20)
(-0.0306173 0.0412868 4.89429e-19)
(-0.0403975 0.054647 7.62187e-21)
(-0.0416578 0.0603178 -2.59793e-19)
(-0.0339358 0.060168 1.59789e-19)
(-0.0165635 0.0558095 -2.69561e-19)
(0.0117378 0.0485935 -5.55018e-20)
(0.0526053 0.039642 1.38234e-19)
(0.106005 0.0263858 1.74179e-19)
(0.194079 0.0354215 1.34309e-19)
(-0.0141773 0.0179438 1.56205e-19)
(-0.0320983 0.0405409 -2.42094e-19)
(-0.0407017 0.0532306 -2.20948e-19)
(-0.0391296 0.0583088 -3.04413e-20)
(-0.0267957 0.0577777 1.5092e-19)
(-0.00281551 0.0533536 5.08956e-19)
(0.0344692 0.0465209 4.14972e-19)
(0.0865919 0.0382016 6.05527e-20)
(0.155912 0.0245658 5.0128e-19)
(0.260882 0.0405278 2.2284e-19)
(-0.0151231 0.0176758 7.06032e-20)
(-0.0332256 0.0393689 4.42438e-19)
(-0.0401485 0.0511664 1.09988e-19)
(-0.0349981 0.0555139 4.39698e-19)
(-0.0170073 0.0545872 -1.61707e-19)
(0.0150029 0.0502453 -5.01118e-19)
(0.0631699 0.0442119 -2.5218e-19)
(0.128513 0.0370562 -2.84825e-19)
(0.217685 0.0249098 -6.08902e-19)
(0.335149 0.0495425 -7.41151e-20)
(-0.0159992 0.0172762 -3.39461e-19)
(-0.0338928 0.0377835 2.11042e-19)
(-0.0385 0.0484843 -2.97597e-19)
(-0.0288636 0.0519961 -1.92768e-19)
(-0.00396309 0.0507062 -7.66337e-20)
(0.0377395 0.0466536 -1.94144e-20)
(0.0989292 0.0419164 7.7885e-20)
(0.179648 0.0363811 1.25127e-19)
(0.292582 0.0293196 2.12295e-19)
(0.412972 0.0619745 -3.55556e-19)
(-0.0167763 0.0167444 1.12479e-20)
(-0.0339714 0.0357959 -2.11304e-19)
(-0.0354793 0.045228 1.54371e-19)
(-0.0202656 0.047856 2.52251e-19)
(0.0130143 0.0463079 -1.6516e-19)
(0.0662939 0.0428387 3.98091e-19)
(0.14276 0.0399699 -1.35041e-19)
(0.241248 0.0364978 -6.69782e-20)
(0.380414 0.0392953 1.07444e-20)
(0.492022 0.0717554 1.14336e-19)
(-0.0174117 0.016074 -2.64889e-20)
(-0.0333016 0.0334178 2.48728e-19)
(-0.0307678 0.0414626 -2.54264e-20)
(-0.00868781 0.0432351 -1.86468e-19)
(0.0346551 0.0416382 1.49392e-19)
(0.101566 0.0391724 -1.32466e-19)
(0.195442 0.0388233 5.54587e-19)
(0.313982 0.0381764 -1.45646e-19)
(0.477287 0.0533576 2.97901e-19)
(0.577907 0.0691935 -1.46275e-19)
(-0.0178517 0.0152599 -1.60054e-19)
(-0.0316906 0.030665 2.26504e-19)
(-0.0240021 0.0372708 -1.31051e-19)
(0.00643335 0.0383177 1.82655e-19)
(0.061712 0.0370188 -3.25087e-19)
(0.144387 0.0361448 -4.29723e-19)
(0.257443 0.0390745 -4.23149e-19)
(0.397316 0.0426316 5.77404e-20)
(0.575404 0.0658209 2.07005e-19)
(0.699129 0.0700019 -5.49467e-20)
(-0.0180317 0.0142936 2.96733e-19)
(-0.0289153 0.0275564 -3.20042e-19)
(-0.0147788 0.0327572 -7.32453e-20)
(0.0256902 0.0333316 -3.41781e-19)
(0.0949118 0.0328392 6.1054e-19)
(0.195406 0.0343369 4.5751e-19)
(0.328802 0.0414131 8.96205e-20)
(0.489266 0.0507546 -2.55116e-21)
(0.676028 0.0786081 -5.48351e-20)
(0.817653 0.0854197 7.93799e-19)
(-0.0178692 0.0131644 -6.05511e-20)
(-0.0247258 0.0241222 1.03968e-20)
(-0.00266767 0.0280503 -1.75741e-19)
(0.0496738 0.0285459 -5.72597e-20)
(0.134887 0.0295422 2.49573e-19)
(0.254941 0.0343669 -5.25684e-19)
(0.40887 0.0465018 2.19126e-19)
(0.586755 0.0625873 1.00448e-19)
(0.776611 0.0935744 -6.84942e-19)
(0.922369 0.104921 -1.19038e-19)
(-0.0172671 0.0118652 3.3764e-19)
(-0.0188475 0.0204075 -1.8187e-19)
(0.012773 0.0233073 1.82262e-19)
(0.0789343 0.0242698 6.38864e-20)
(0.182088 0.0276075 -9.37253e-20)
(0.322821 0.0368294 -4.50954e-20)
(0.496052 0.0548297 -2.25611e-19)
(0.686078 0.0776539 2.40796e-19)
(0.872336 0.110635 1.64473e-20)
(1.01246 0.12503 -1.2266e-19)
(-0.0161156 0.0103953 -1.79982e-19)
(-0.0109886 0.0164787 4.35332e-19)
(0.0319766 0.0187193 -1.22411e-19)
(0.113934 0.0208518 3.0678e-20)
(0.23669 0.0275315 5.63294e-19)
(0.398254 0.0422262 -2.48363e-19)
(0.587814 0.0665722 -2.24556e-19)
(0.783201 0.0952373 8.33382e-20)
(0.959282 0.128917 7.28386e-20)
(1.08596 0.144462 -6.34488e-20)
(-0.0142945 0.00876485 8.09494e-20)
(-0.000851083 0.0124301 4.05725e-20)
(0.0553435 0.014517 5.07995e-20)
(0.154994 0.0186779 -8.54534e-20)
(0.298496 0.0298009 -1.00275e-19)
(0.479764 0.0508876 -3.85807e-19)
(0.680954 0.081515 5.17587e-20)
(0.874394 0.114491 6.48096e-20)
(1.03481 0.147464 1.14224e-19)
(1.14366 0.162366 3.25355e-19)
(-0.0116775 0.00699717 -6.63764e-20)
(0.0118576 0.00839086 -5.50378e-19)
(0.0832136 0.0109746 3.75063e-19)
(0.202242 0.0181645 1.71481e-19)
(0.366861 0.0348514 -2.67173e-19)
(0.565232 0.0629034 -4.06839e-20)
(0.772084 0.0991093 3.03762e-19)
(0.956793 0.13456 5.02968e-19)
(1.09786 0.165508 1.34957e-20)
(1.18726 0.178503 -1.28212e-19)
(-0.00813513 0.00513212 -1.00395e-19)
(0.0274097 0.00452873 1.97391e-19)
(0.115835 0.00841076 -4.87447e-19)
(0.255552 0.0197427 -1.7413e-19)
(0.440649 0.0430128 1.8179e-19)
(0.652094 0.0780937 9.81493e-20)
(0.858145 0.118624 -3.47918e-19)
(1.02867 0.154709 -2.44109e-19)
(1.14863 0.182576 -3.04009e-19)
(1.219 0.192899 1.7681e-19)
(-0.00354046 0.00322766 3.84476e-20)
(0.0460416 0.00105243 3.60836e-19)
(0.15333 0.00718277 1.79313e-19)
(0.3145 0.0238298 1.94391e-19)
(0.518272 0.0544514 -6.73772e-20)
(0.737664 0.0960447 3.21772e-19)
(0.936788 0.13931 -2.78925e-20)
(1.08939 0.174403 1.76826e-19)
(1.18813 0.198453 3.36351e-19)
(1.24114 0.205765 -1.51803e-19)
(0.00222627 0.00136069 -1.12132e-19)
(0.0679349 -0.00179004 -2.1973e-19)
(0.195663 0.00767516 -1.4276e-19)
(0.378335 0.0307901 1.3915e-19)
(0.597803 0.0691357 2.82719e-20)
(0.81947 0.1162 -2.75674e-19)
(1.00653 0.16052 6.27551e-20)
(1.13919 0.193308 7.73374e-20)
(1.21781 0.213116 4.66455e-20)
(1.25576 0.217382 5.63764e-20)
(0.00927137 -0.000372994 7.52751e-20)
(0.0931992 -0.00371606 2.0117e-19)
(0.242614 0.0102807 1.95821e-19)
(0.445987 0.0408899 -2.42523e-19)
(0.67717 0.0868437 -1.72959e-19)
(0.895515 0.137968 1.02717e-19)
(1.06671 0.181758 1.67114e-19)
(1.17886 0.211267 -4.18186e-20)
(1.23923 0.226665 -1.70561e-19)
(1.26462 0.228042 -4.48141e-20)
(0.0176812 -0.00185998 4.87311e-20)
(0.121853 -0.00441691 -8.90325e-21)
(0.293753 0.015375 -9.09559e-20)
(0.516123 0.0542619 -1.40823e-20)
(0.754373 0.107212 -1.51885e-20)
(0.9644 0.160803 1.30974e-19)
(1.11731 0.202687 -2.07613e-19)
(1.20951 0.22825 -1.27727e-19)
(1.25391 0.239266 -3.75095e-21)
(1.26912 0.238013 8.29464e-20)
(0.0275157 -0.00297168 2.32635e-19)
(0.153809 -0.00356944 -4.3171e-20)
(0.348443 0.0232867 -7.26922e-20)
(0.587237 0.0708897 -1.19771e-20)
(0.827666 0.129804 -3.39975e-20)
(1.02532 0.184247 -1.44462e-19)
(1.15879 0.223102 8.85785e-20)
(1.23236 0.244313 -1.20983e-19)
(1.26317 0.25111 7.66664e-20)
(1.27034 0.247519 2.07337e-19)
(0.0388021 -0.00356751 -1.0055e-19)
(0.188864 -0.00085064 -2.103e-19)
(0.405852 0.0342682 -2.68019e-20)
(0.657781 0.0906198 2.48656e-19)
(0.895671 0.154167 7.69723e-20)
(1.07797 0.207945 1.67052e-19)
(1.19188 0.242902 2.69692e-19)
(1.24861 0.25956 5.8371e-20)
(1.26813 0.262381 5.85319e-20)
(1.26909 0.256736 -1.52832e-19)
(0.0515293 -0.00349924 9.30359e-21)
(0.226689 0.00404541 1.4426e-19)
(0.464992 0.0484724 1.49588e-19)
(0.726278 0.113191 -1.6015e-19)
(0.957411 0.179877 1.98999e-19)
(1.12243 0.231635 -1.70843e-19)
(1.21743 0.262058 -3.6948e-20)
(1.25934 0.274118 -5.5093e-20)
(1.2697 0.273243 -5.62814e-20)
(1.26594 0.265788 -7.88798e-20)
(0.0656432 -0.0026162 -9.2913e-21)
(0.266837 0.0113894 -1.47057e-20)
(0.524773 0.0659412 -1.11207e-20)
(0.791421 0.138275 -9.001e-21)
(1.01229 0.206555 4.14188e-20)
(1.15905 0.255132 4.49712e-20)
(1.23636 0.280588 -4.62034e-20)
(1.26549 0.288112 -3.18823e-20)
(1.26857 0.283829 -3.44856e-20)
(1.26128 0.274758 1.03023e-19)
(0.0810441 -0.000771168 -1.50498e-20)
(0.308751 0.0213992 3.96955e-20)
(0.584068 0.0866056 6.22275e-20)
(0.852132 0.165504 -1.91577e-20)
(1.06002 0.233874 -1.36419e-19)
(1.18835 0.278309 -1.04044e-19)
(1.24949 0.298535 -3.46322e-21)
(1.26786 0.301655 7.4674e-20)
(1.26525 0.294235 -1.12983e-20)
(1.25537 0.283688 -2.83502e-20)
(0.0975862 0.00217313 -4.10045e-20)
(0.351782 0.0342246 2.21003e-20)
(0.64178 0.110297 -2.35642e-20)
(0.907581 0.194503 5.09986e-21)
(1.10058 0.261554 1.63738e-20)
(1.21091 0.301081 2.28595e-20)
(1.25762 0.315947 -3.79712e-21)
(1.26708 0.314838 -4.41417e-20)
(1.26013 0.304524 2.65848e-21)
(1.24838 0.292587 1.31866e-20)
(0.115079 0.0063373 -1.36853e-20)
(0.395217 0.0499366 2.89605e-23)
(0.696888 0.136766 3.37845e-21)
(0.957181 0.224896 -3.26604e-21)
(1.13411 0.289356 2.2098e-20)
(1.22734 0.323387 7.32375e-21)
(1.26142 0.33287 4.0348e-21)
(1.26365 0.327722 -1.53202e-21)
(1.25347 0.314723 -6.15084e-21)
(1.24043 0.301442 -1.24804e-20)
(0.133292 0.0118188 -6.5397e-21)
(0.438307 0.0685212 -1.97109e-20)
(0.748496 0.165695 1.47207e-20)
(1.00056 0.256322 -1.5226e-21)
(1.16089 0.317072 1.34185e-20)
(1.23824 0.345181 1.18205e-20)
(1.26145 0.349335 8.82824e-21)
(1.25794 0.340344 -6.76295e-21)
(1.24545 0.32483 -6.5377e-21)
(1.23158 0.310217 -9.68708e-21)
(0.151959 0.0186859 -2.33608e-20)
(0.480295 0.0898797 -2.29687e-20)
(0.795848 0.196726 -1.43624e-20)
(1.03752 0.288432 -1.35009e-20)
(1.18127 0.344517 2.7878e-20)
(1.24416 0.366419 3.77901e-20)
(1.25821 0.365356 -4.89219e-21)
(1.25025 0.352712 -3.22815e-20)
(1.2362 0.334819 -5.15248e-21)
(1.22187 0.318865 -3.82866e-21)
(0.170787 0.0269731 -2.6789e-20)
(0.520454 0.113832 1.25171e-20)
(0.83834 0.229464 3.47074e-20)
(1.06803 0.320895 1.26219e-20)
(1.19563 0.371522 -1.71478e-19)
(1.24559 0.387053 -2.04323e-20)
(1.25206 0.380927 -2.10744e-20)
(1.24078 0.364806 5.59328e-20)
(1.22578 0.344639 -1.97753e-20)
(1.21132 0.327326 -8.2248e-21)
(0.189468 0.0366776 2.61313e-20)
(0.558102 0.140127 -5.90433e-20)
(0.875518 0.263497 -1.06463e-19)
(1.09214 0.353389 3.06997e-20)
(1.20437 0.397926 8.18002e-20)
(1.24298 0.407027 1.57519e-20)
(1.24333 0.396019 1.09944e-20)
(1.22968 0.376584 -2.23769e-20)
(1.21427 0.35422 -2.48361e-20)
(1.19996 0.335532 5.37862e-20)
(0.207683 0.0477579 5.67486e-20)
(0.592628 0.168448 2.52258e-19)
(0.907067 0.298402 3.87945e-20)
(1.11 0.385609 -1.50353e-19)
(1.20789 0.423575 7.78597e-20)
(1.23672 0.426276 -9.1719e-21)
(1.23226 0.410585 -1.1037e-19)
(1.21707 0.387978 9.6111e-21)
(1.20169 0.363471 -1.87608e-20)
(1.18779 0.343412 -4.07897e-20)
(0.225115 0.0601332 -2.38033e-19)
(0.623508 0.19843 -2.6703e-19)
(0.932799 0.333753 -4.29002e-20)
(1.12185 0.41726 3.73372e-19)
(1.20657 0.448315 -1.57444e-20)
(1.22714 0.444722 2.02263e-19)
(1.21905 0.424559 1.23564e-19)
(1.20302 0.39891 9.0776e-20)
(1.18803 0.372295 1.7238e-20)
(1.17469 0.350894 -4.00228e-20)
(0.241459 0.073686 2.23545e-19)
(0.650307 0.229665 -2.21806e-19)
(0.952636 0.369123 1.35262e-19)
(1.12792 0.448059 -1.38796e-19)
(1.20079 0.471994 2.98438e-20)
(1.21455 0.462274 -1.44473e-19)
(1.20387 0.437866 7.42762e-21)
(1.18761 0.409303 -1.23829e-20)
(1.17327 0.380626 1.6202e-20)
(1.16044 0.357887 6.73715e-20)
(0.256429 0.0882643 1.76783e-20)
(0.672691 0.26172 6.94923e-20)
(0.966596 0.404096 -9.83385e-20)
(1.12853 0.477733 -3.79816e-20)
(1.19089 0.494455 -6.57612e-20)
(1.19919 0.478831 1.25368e-19)
(1.18687 0.450412 -1.4315e-19)
(1.17089 0.419087 -3.93523e-20)
(1.15742 0.388491 1.41696e-20)
(1.14493 0.364237 -2.07462e-20)
(0.269765 0.103686 3.11249e-20)
(0.690422 0.294142 1.19234e-19)
(0.974776 0.438262 4.27741e-19)
(1.12398 0.50602 -3.02213e-19)
(1.1772 0.515542 -1.26427e-19)
(1.1813 0.494278 -5.71833e-20)
(1.16816 0.462088 1.31737e-19)
(1.15294 0.428157 4.0264e-20)
(1.14057 0.39593 -4.59846e-20)
(1.1288 0.369876 -1.61503e-20)
(0.281242 0.119744 -9.01863e-20)
(0.70336 0.326477 -1.945e-19)
(0.977336 0.471228 -3.15838e-19)
(1.11459 0.532668 2.38379e-19)
(1.16003 0.535098 6.80389e-21)
(1.16109 0.508496 -1.2704e-19)
(1.14786 0.472775 3.94875e-20)
(1.13383 0.43638 -5.56823e-22)
(1.12272 0.402624 2.57619e-20)
(1.11226 0.374984 -1.87045e-21)
(0.290673 0.13621 -4.90793e-20)
(0.711451 0.358271 3.25e-19)
(0.974496 0.502618 3.57425e-19)
(1.10072 0.557437 7.70693e-20)
(1.13969 0.55297 -4.84336e-20)
(1.13875 0.521359 2.37192e-19)
(1.12612 0.482358 -7.62769e-20)
(1.11362 0.443687 2.08881e-20)
(1.10387 0.408455 3.6593e-20)
(1.09507 0.379311 -9.33719e-22)
(0.297913 0.152841 -1.93567e-19)
(0.714719 0.389085 9.37745e-20)
(0.966522 0.532075 -2.85811e-19)
(1.0827 0.580098 -1.17493e-19)
(1.11645 0.569004 5.69966e-20)
(1.1145 0.532731 -1.16911e-20)
(1.10305 0.490714 -9.15412e-20)
(1.09235 0.449963 -2.30673e-20)
(1.08418 0.413333 -9.13206e-21)
(1.07721 0.382768 2.41784e-20)
(0.302859 0.169389 -1.36501e-19)
(0.713262 0.418497 -3.61569e-19)
(0.953739 0.55927 2.56703e-19)
(1.06089 0.600435 5.0217e-21)
(1.09059 0.58304 4.19628e-20)
(1.08851 0.542483 -1.05166e-19)
(1.07874 0.497724 6.2489e-20)
(1.0701 0.455099 7.38117e-21)
(1.0637 0.417169 -3.11115e-21)
(1.05873 0.385261 4.79441e-20)
(0.305451 0.1856 1.49565e-19)
(0.707256 0.446104 3.22708e-20)
(0.93653 0.583922 -2.18243e-19)
(1.03558 0.618236 4.6257e-20)
(1.06238 0.594924 -4.06614e-20)
(1.06096 0.550477 -4.75349e-20)
(1.05332 0.50327 -2.26698e-20)
(1.04699 0.458989 3.3281e-20)
(1.04251 0.419867 1.10655e-20)
(1.03973 0.386717 -1.2808e-19)
(0.30568 0.201223 -1.23739e-19)
(0.696962 0.471518 4.23334e-19)
(0.915248 0.605781 -2.14939e-19)
(1.00706 0.633306 1.5696e-19)
(1.03209 0.604501 9.29781e-20)
(1.03203 0.556584 7.10615e-21)
(1.02692 0.507241 -9.37328e-21)
(1.0231 0.461532 2.98889e-20)
(1.0207 0.421325 -1.00746e-19)
(1.02027 0.387042 3.83704e-20)
(0.303599 0.216023 7.93743e-20)
(0.682712 0.49442 -1.24098e-19)
(0.890014 0.624487 2.12027e-19)
(0.975778 0.64555 -7.21344e-20)
(1.00004 0.61162 -5.42956e-20)
(1.00193 0.560688 -2.02189e-20)
(0.99968 0.509534 3.51671e-20)
(0.998546 0.462643 -8.20717e-21)
(0.998351 0.421452 5.39226e-21)
(1.00045 0.386144 1.98138e-20)
(0.299308 0.229754 -9.02665e-20)
(0.664802 0.514687 -3.99698e-20)
(0.861065 0.639705 -5.1644e-20)
(0.94218 0.654717 -2.48238e-20)
(0.966473 0.616208 8.56735e-21)
(0.970843 0.562687 1.11007e-19)
(0.971746 0.510051 -5.86329e-20)
(0.973442 0.462242 -1.2057e-19)
(0.975603 0.420181 3.07587e-19)
(0.980543 0.38398 1.34642e-19)
(0.292895 0.242069 1.04588e-19)
(0.643327 0.531972 -1.32858e-19)
(0.829213 0.651605 -2.05063e-20)
(0.906656 0.660605 -1.3298e-20)
(0.931668 0.618149 -5.08977e-20)
(0.938955 0.562485 -1.6692e-19)
(0.943243 0.508696 1.36861e-20)
(0.947883 0.460225 -1.71625e-20)
(0.952721 0.417433 -1.02679e-19)
(0.961235 0.380585 -2.51012e-19)
(0.284372 0.252752 -8.38531e-21)
(0.618517 0.545721 3.42189e-20)
(0.794966 0.659928 -1.50993e-20)
(0.869488 0.663235 1.32334e-21)
(0.895872 0.617366 1.15268e-19)
(0.906448 0.560002 1.09478e-19)
(0.914274 0.505373 2.69977e-19)
(0.921973 0.456432 6.3395e-20)
(0.930089 0.412964 -1.54181e-19)
(0.943198 0.37594 3.66397e-21)
(0.273969 0.261649 1.17596e-20)
(0.590993 0.555842 -9.39691e-21)
(0.758615 0.664458 -1.58184e-20)
(0.831012 0.662527 3.16524e-20)
(0.859349 0.613794 5.50394e-20)
(0.873502 0.555183 -1.19469e-20)
(0.884951 0.500032 -4.15655e-19)
(0.895864 0.450739 4.26103e-20)
(0.907957 0.406323 1.28118e-20)
(0.925591 0.36916 7.36863e-20)
(0.261906 0.268678 2.62145e-21)
(0.561171 0.562212 6.09362e-21)
(0.720571 0.665062 -1.21693e-19)
(0.791579 0.658421 4.8451e-20)
(0.822359 0.607391 -4.31058e-21)
(0.840305 0.548 -3.01638e-19)
(0.855445 0.492683 2.9744e-19)
(0.869783 0.443292 -2.52421e-19)
(0.886192 0.397728 2.72619e-19)
(0.905588 0.356404 -1.47875e-19)
(0.248354 0.273675 8.19686e-20)
(0.529483 0.564722 8.616e-20)
(0.68126 0.661672 2.07144e-19)
(0.751534 0.650873 1.59357e-19)
(0.785169 0.598131 3.48915e-20)
(0.807073 0.538425 6.80869e-21)
(0.82601 0.483301 -1.75362e-19)
(0.843951 0.434234 4.1005e-20)
(0.863773 0.389251 -2.68271e-19)
(0.882513 0.34952 3.46381e-19)
(0.233539 0.276518 -2.78357e-20)
(0.496356 0.563292 -7.00919e-20)
(0.641104 0.654263 -3.16824e-19)
(0.711226 0.639871 -1.66418e-19)
(0.748041 0.586 -1.11546e-20)
(0.774027 0.526432 5.53471e-19)
(0.796853 0.471826 4.42185e-19)
(0.818455 0.423257 3.0308e-19)
(0.841336 0.378666 6.20126e-19)
(0.860956 0.339166 3.18387e-19)
(0.217702 0.277119 -1.77414e-20)
(0.462215 0.557876 2.4307e-19)
(0.600522 0.642842 8.96641e-20)
(0.670993 0.625427 -8.17435e-20)
(0.71124 0.571008 9.29346e-20)
(0.741382 0.512032 -7.81044e-19)
(0.768118 0.458298 -4.14573e-19)
(0.793284 0.410579 -2.1052e-19)
(0.818956 0.366929 -3.75856e-19)
(0.840129 0.328537 -1.26514e-19)
(0.201096 0.275418 -4.03829e-20)
(0.427483 0.548466 -4.6137e-19)
(0.559923 0.627447 4.32362e-20)
(0.631169 0.60758 2.06359e-19)
(0.675028 0.553184 -7.66521e-20)
(0.709352 0.49524 1.17801e-19)
(0.739979 0.442716 3.6254e-19)
(0.768612 0.396126 -1.53714e-19)
(0.796988 0.35366 -4.5698e-19)
(0.820125 0.31654 -2.08485e-20)
(0.183975 0.271385 1.02953e-19)
(0.392578 0.535093 1.32363e-19)
(0.519706 0.608143 2.22537e-19)
(0.592078 0.586393 -1.12804e-19)
(0.639661 0.532576 -4.56507e-19)
(0.678147 0.476095 -4.9536e-19)
(0.712598 0.425122 -1.82172e-19)
(0.744594 0.379968 5.46195e-19)
(0.775624 0.338985 4.44214e-19)
(0.800939 0.303313 4.9464e-19)
(0.166594 0.265017 -3.76874e-19)
(0.357909 0.517823 4.5604e-19)
(0.480255 0.585027 -3.30244e-19)
(0.554033 0.561954 -2.93714e-19)
(0.605389 0.509254 6.58331e-19)
(0.647968 0.454651 5.88193e-19)
(0.686145 0.405558 7.00105e-19)
(0.721391 0.362129 -2.43617e-19)
(0.755014 0.322877 -2.46826e-19)
(0.782603 0.28879 -7.13167e-19)
(0.149206 0.256342 2.78527e-19)
(0.323873 0.496759 -1.0263e-19)
(0.441941 0.558225 4.01831e-19)
(0.517336 0.534373 -3.61308e-19)
(0.572452 0.483306 -5.03638e-20)
(0.619013 0.43098 -1.00254e-18)
(0.660786 0.384087 -4.54615e-19)
(0.699153 0.342662 2.48667e-19)
(0.735286 0.30537 9.64472e-20)
(0.765179 0.273003 -6.85848e-21)
(0.132061 0.24541 1.41125e-19)
(0.29085 0.472036 -3.77773e-19)
(0.405117 0.527887 -5.04788e-19)
(0.482275 0.503783 3.4455e-20)
(0.541082 0.45484 4.88703e-19)
(0.591473 0.405172 -3.33679e-20)
(0.636683 0.360784 -1.63733e-19)
(0.678022 0.321627 -2.85065e-19)
(0.716557 0.286504 -5.33517e-19)
(0.748732 0.255996 1.49014e-20)
(0.115397 0.232299 5.56022e-20)
(0.259204 0.443821 -5.26657e-20)
(0.370116 0.494192 8.22937e-19)
(0.44912 0.470338 3.22539e-19)
(0.511497 0.423983 -1.08736e-19)
(0.565531 0.377332 7.26435e-19)
(0.613992 0.335739 -3.66849e-19)
(0.658132 0.299098 4.47257e-19)
(0.698937 0.266337 1.7629e-19)
(0.733336 0.23783 -2.88131e-19)
(0.0994441 0.217112 1.83306e-19)
(0.229277 0.412313 2.64504e-19)
(0.337252 0.457343 -9.43278e-19)
(0.418129 0.434213 -1.39137e-19)
(0.483906 0.390879 -6.11756e-19)
(0.541361 0.347581 7.89936e-20)
(0.59286 0.309056 1.012e-19)
(0.639609 0.275161 1.51221e-19)
(0.682532 0.244939 5.39519e-19)
(0.719062 0.21858 1.1225e-19)
(0.0844192 0.199972 -2.49058e-19)
(0.201388 0.377736 3.47803e-19)
(0.306815 0.417566 2.27269e-20)
(0.389537 0.395601 8.81246e-20)
(0.458503 0.355689 6.05868e-19)
(0.519126 0.316055 1.03145e-20)
(0.573427 0.280851 1.49691e-19)
(0.622572 0.249913 -7.37262e-20)
(0.667441 0.222395 -3.38427e-19)
(0.70598 0.198328 -9.93882e-20)
(0.0705231 0.181024 5.00232e-19)
(0.175829 0.340339 -3.826e-19)
(0.279072 0.375107 4.7749e-19)
(0.363563 0.354713 -2.9095e-20)
(0.435466 0.318589 -1.27924e-20)
(0.498977 0.282904 -5.70396e-19)
(0.555821 0.251253 1.09249e-19)
(0.607133 0.223465 3.2144e-20)
(0.653759 0.1988 -1.31777e-19)
(0.694156 0.177165 5.74923e-19)
(0.0579399 0.160432 -5.53924e-19)
(0.152866 0.300397 3.01114e-19)
(0.254262 0.330233 -2.97189e-19)
(0.340404 0.311776 -1.73886e-19)
(0.414959 0.279769 -5.17529e-20)
(0.481053 0.248289 1.31531e-19)
(0.540164 0.2204 1.84576e-19)
(0.593397 0.195936 1.86598e-19)
(0.641577 0.174259 -3.20766e-19)
(0.683651 0.155189 -2.17086e-19)
(0.0468346 0.138378 1.49627e-19)
(0.132735 0.258202 -7.23996e-20)
(0.232599 0.283227 -4.72257e-20)
(0.320235 0.267032 5.48161e-19)
(0.397126 0.23943 -1.00251e-19)
(0.46548 0.212383 -1.08493e-19)
(0.526566 0.188443 2.04323e-19)
(0.581461 0.167457 -9.90281e-20)
(0.630981 0.148885 7.29545e-20)
(0.674525 0.132502 1.44969e-19)
(0.0373518 0.115057 1.32692e-19)
(0.115642 0.214066 -4.3368e-20)
(0.214269 0.234388 9.68938e-20)
(0.303209 0.220733 -3.01784e-19)
(0.382094 0.197786 6.76321e-20)
(0.452367 0.175367 4.3783e-19)
(0.515125 0.155538 -2.6296e-19)
(0.571418 0.138164 -4.34384e-19)
(0.622053 0.122802 -1.32084e-19)
(0.666835 0.109213 5.15132e-21)
(0.029614 0.0906792 4.2466e-20)
(0.101759 0.168318 -1.32282e-19)
(0.199425 0.184028 2.61768e-19)
(0.289451 0.173144 -9.38735e-20)
(0.36997 0.155057 1.53171e-19)
(0.441807 0.137429 -3.62215e-19)
(0.505926 0.121847 1.80944e-19)
(0.563349 0.108199 1.54085e-19)
(0.614877 0.0961386 2.36546e-19)
(0.660647 0.0854418 -2.07788e-19)
(0.023721 0.0654647 -1.5062e-19)
(0.0912258 0.121297 7.12945e-20)
(0.188194 0.132467 -1.18464e-19)
(0.279065 0.124537 -1.58401e-19)
(0.360836 0.111471 -3.38031e-19)
(0.433873 0.0987614 2.42284e-19)
(0.499038 0.0875351 -5.97105e-20)
(0.55733 0.0777086 1.81669e-19)
(0.609536 0.06903 -1.60699e-19)
(0.656043 0.0613172 1.3657e-19)
(0.0197483 0.0396427 5.0188e-20)
(0.084148 0.0733544 -1.63066e-20)
(0.180667 0.0800396 -1.87079e-20)
(0.272123 0.0751935 1.33352e-19)
(0.354753 0.0672625 6.87801e-20)
(0.428614 0.0595617 -6.85239e-20)
(0.494507 0.0527679 -9.86187e-21)
(0.553415 0.0468301 -1.90415e-19)
(0.606109 0.0415948 1.38635e-19)
(0.653135 0.0369321 4.21046e-20)
(0.0177471 0.0134493 -1.17224e-20)
(0.0805958 0.0248501 -2.59608e-20)
(0.176906 0.0270824 -1.46133e-20)
(0.268674 0.0253986 9.53435e-21)
(0.351755 0.0226704 5.344e-20)
(0.426055 0.02003 9.65193e-21)
(0.492347 0.0177106 3.34628e-20)
(0.551613 0.0156953 6.04327e-20)
(0.604626 0.0139288 -5.54534e-21)
(0.652003 0.0123433 -6.00963e-20)
(0.0177434 -0.012875 -2.18721e-20)
(0.0806042 -0.0238515 -3.12462e-20)
(0.17694 -0.0260609 5.17322e-21)
(0.268737 -0.0245564 -6.90129e-21)
(0.351851 -0.0220607 6.28067e-20)
(0.426192 -0.0196267 -2.13073e-21)
(0.492535 -0.0174633 3.51955e-20)
(0.551869 -0.0155525 5.67997e-20)
(0.604985 -0.0138415 8.73023e-21)
(0.652543 -0.0122672 -6.96125e-20)
(0.0197376 -0.0390879 8.6131e-20)
(0.0841727 -0.0723834 1.72726e-20)
(0.180766 -0.0790447 -4.95827e-20)
(0.272307 -0.0743776 1.77984e-19)
(0.355034 -0.0666819 2.03505e-20)
(0.429006 -0.0591937 -3.00668e-20)
(0.495029 -0.0525667 -1.08536e-20)
(0.554093 -0.0467528 -1.74097e-19)
(0.606983 -0.041609 1.16756e-19)
(0.654249 -0.0370234 -1.7404e-20)
(0.0237049 -0.0649474 -1.63714e-19)
(0.0912659 -0.120379 2.0939e-20)
(0.188352 -0.131524 -8.26124e-20)
(0.279356 -0.123771 -1.82407e-19)
(0.361274 -0.110943 -3.53397e-19)
(0.43447 -0.0984526 2.44223e-19)
(0.499807 -0.0874026 -1.00769e-21)
(0.55828 -0.0777124 1.66726e-19)
(0.610664 -0.0691396 -2.00621e-19)
(0.65733 -0.0615082 1.77297e-19)
(0.0295951 -0.0902147 -1.63204e-20)
(0.101813 -0.167475 1.13995e-20)
(0.199634 -0.183155 -9.00912e-20)
(0.289829 -0.172445 1.29193e-19)
(0.370529 -0.154596 9.55071e-20)
(0.442551 -0.13719 -4.21873e-19)
(0.506848 -0.121785 1.24259e-19)
(0.564427 -0.108271 3.30718e-19)
(0.616068 -0.0963054 1.02377e-19)
(0.661889 -0.0856665 -1.30581e-19)
(0.0373332 -0.114657 -2.83491e-20)
(0.11571 -0.213317 -1.16441e-19)
(0.214516 -0.233604 2.46128e-19)
(0.303652 -0.220114 -2.80143e-19)
(0.382738 -0.197401 -1.75693e-19)
(0.453199 -0.175199 6.38793e-19)
(0.516116 -0.155538 -5.11261e-19)
(0.572517 -0.138281 -2.91808e-19)
(0.623192 -0.122991 -9.53968e-20)
(0.667937 -0.109431 2.7798e-20)
(0.0468201 -0.13805 2.04734e-19)
(0.132816 -0.257559 9.51741e-20)
(0.232876 -0.282542 -7.98464e-20)
(0.320722 -0.266499 6.06415e-19)
(0.397818 -0.239121 -2.78349e-19)
(0.46635 -0.212279 6.19437e-20)
(0.527563 -0.18849 2.96442e-21)
(0.582514 -0.167599 -4.92811e-20)
(0.63201 -0.149073 1.15164e-19)
(0.67546 -0.132693 6.16841e-20)
(0.0579332 -0.160181 -4.27354e-19)
(0.15296 -0.299867 4.82199e-20)
(0.25456 -0.329653 -2.79115e-19)
(0.340915 -0.311333 -1.02538e-19)
(0.41567 -0.279533 8.86341e-20)
(0.481923 -0.248241 4.88378e-20)
(0.541124 -0.220481 4.4806e-20)
(0.594364 -0.196086 1.10418e-19)
(0.642474 -0.17443 -5.11022e-20)
(0.684427 -0.155345 -3.87399e-19)
(0.0705279 -0.180849 4.40189e-19)
(0.175937 -0.339926 -2.64516e-19)
(0.279383 -0.374635 4.92038e-19)
(0.364083 -0.354358 -6.34624e-20)
(0.436174 -0.318422 -1.20322e-19)
(0.499818 -0.282902 -4.74174e-19)
(0.556716 -0.251354 2.06482e-19)
(0.607997 -0.223611 -3.26945e-19)
(0.654524 -0.198948 2.16067e-19)
(0.694792 -0.177286 2.66009e-19)
(0.0844388 -0.199871 -3.33236e-19)
(0.201511 -0.377438 1.6518e-19)
(0.307134 -0.417201 3.58199e-19)
(0.390054 -0.395331 -4.14286e-20)
(0.459191 -0.355584 6.33115e-19)