/*--------------------------------*- C++ -*----------------------------------*\
  =========                 |
  \\      /  F ield         | OpenFOAM: The Open Source CFD Toolbox
   \\    /   O peration     | Website:  https://openfoam.org
    \\  /    A nd           | Version:  7
     \\/     M anipulation  |
\*---------------------------------------------------------------------------*/
FoamFile
{
    version     2.0;
    format      ascii;
    class       volVectorField;
    location    "20";
    object      U;
}
// * * * * * * * * * * * * * * * * * * * * * * * * * * * * * * * * * * * * * //

dimensions      [0 1 -1 0 0 0 0];

internalField   nonuniform List<vector> 
6386
(
(-0.0133009 0.018264 8.2752e-20)
(-0.0142923 0.0181061 1.86317e-19)
(-0.0152331 0.0178151 8.37336e-20)
(-0.0161033 0.0173948 -4.04281e-19)
(-0.0339674 0.0379802 2.51365e-19)
(-0.0168724 0.016843 1.33366e-20)
(-0.033987 0.0359238 -2.5089e-19)
(-0.0174965 0.0161539 -3.14567e-20)
(-0.0332416 0.0334789 2.95286e-19)
(-0.0301883 0.0414129 -3.03286e-20)
(-0.0179217 0.0153216 -1.89274e-19)
(-0.031534 0.0306601 2.67977e-19)
(-0.0231889 0.037114 -1.55272e-19)
(0.00838666 0.0379482 2.16972e-19)
(-0.0180806 0.0143362 3.50028e-19)
(-0.0286373 0.027486 -3.78149e-19)
(-0.0136805 0.0324993 -8.64781e-20)
(0.0281625 0.0328375 -4.05602e-19)
(-0.0178888 0.0131863 -7.16155e-20)
(-0.0242971 0.0239865 1.2784e-20)
(-0.00122758 0.0276985 -2.07093e-19)
(0.0527515 0.0279449 -6.75987e-20)
(0.140313 0.0287033 2.96757e-19)
(-0.0172471 0.0118641 3.95873e-19)
(-0.0182347 0.0202065 -2.13083e-19)
(0.0146153 0.0228696 2.1495e-19)
(0.0827019 0.0235821 7.57284e-20)
(0.188528 0.0267052 -1.10573e-19)
(0.332545 0.0357746 -5.41826e-20)
(-0.0160437 0.0103692 -2.11288e-19)
(-0.0101553 0.0162129 5.10907e-19)
(0.0342827 0.0182052 -1.43707e-19)
(0.118469 0.0201001 3.63065e-20)
(0.244196 0.026603 6.66369e-19)
(0.409165 0.0411904 -2.95485e-19)
(0.601753 0.0653858 -2.67613e-19)
(-0.014157 0.00871188 9.37893e-20)
(0.000241464 0.0121016 4.67148e-20)
(0.0581736 0.0139388 6.03534e-20)
(0.160359 0.0178881 -1.00382e-19)
(0.307077 0.0288832 -1.18601e-19)
(0.491706 0.0498941 -4.57146e-19)
(0.695385 0.080306 6.16618e-20)
(0.889579 0.112736 7.75533e-20)
(-0.0114593 0.00691641 -7.76907e-20)
(0.0132489 0.00800415 -6.41732e-19)
(0.0866231 0.0103482 4.39006e-19)
(0.208479 0.0173661 2.01341e-19)
(0.376469 0.0339784 -3.14836e-19)
(0.577968 0.0619548 -4.75705e-20)
(0.78661 0.0978319 3.60823e-19)
(0.971248 0.132573 6.00673e-19)
(1.11079 0.162528 1.63428e-20)
(-0.0078204 0.00502381 -1.16481e-19)
(0.029139 0.00409157 2.30359e-19)
(0.119871 0.00775618 -5.68127e-19)
(0.262675 0.018968 -2.04081e-19)
(0.451179 0.0422102 2.1339e-19)
(0.665335 0.0771723 1.16655e-19)
(0.872414 0.117231 -4.12662e-19)
(1.04219 0.152477 -2.91108e-19)
(1.16035 0.179334 -3.65708e-19)
(1.22881 0.18869 2.14381e-19)
(-0.00311295 0.00309358 4.45753e-20)
(0.0481455 0.00057634 4.18195e-19)
(0.158028 0.00652468 2.09204e-19)
(0.32249 0.023112 2.26888e-19)
(0.52956 0.0537323 -7.9101e-20)
(0.751108 0.0951196 3.79061e-19)
(0.950533 0.137767 -3.29196e-20)
(1.10191 0.171936 2.11278e-19)
(1.19874 0.194998 4.05516e-19)
(1.24998 0.201426 -1.85063e-19)
(0.00278276 0.00120424 -1.28605e-19)
(0.0704462 -0.00228952 -2.54094e-19)
(0.201044 0.00704229 -1.64682e-19)
(0.387133 0.0301601 1.61739e-19)
(0.609646 0.0684984 3.30958e-20)
(0.832839 0.115238 -3.23924e-19)
(1.01958 0.158814 7.43875e-20)
(1.1507 0.190639 9.2209e-20)
(1.22746 0.209509 5.6621e-20)
(1.26383 0.212988 6.91931e-20)
(0.00997236 -0.000546558 8.6744e-20)
(0.0961444 -0.00421936 2.31404e-19)
(0.248678 0.00970477 2.26729e-19)
(0.4555 0.0403723 -2.818e-19)
(0.689347 0.0862752 -2.0168e-19)
(0.908584 0.136943 1.21089e-19)
(1.07897 0.179894 1.98055e-19)
(1.18944 0.208438 -4.98754e-20)
(1.24807 0.222968 -2.06095e-19)
(1.27209 0.223657 -5.523e-20)
(0.0185408 -0.00204365 5.59271e-20)
(0.125251 -0.00490091 -1.09045e-20)
(0.300479 0.0148886 -1.04776e-19)
(0.526223 0.053872 -1.61598e-20)
(0.76667 0.106694 -1.73071e-20)
(0.977007 0.1597 1.534e-19)
(1.12877 0.200684 -2.45069e-19)
(1.21926 0.225309 -1.52399e-19)
(1.26207 0.235537 -4.84747e-21)
(1.27612 0.23369 1.01643e-19)
(0.0285461 -0.0031568 2.64417e-19)
(0.157669 -0.00400817 -4.97553e-20)
(0.355787 0.022921 -8.32309e-20)
(0.597779 0.0706336 -1.34779e-20)
(0.839893 0.129317 -3.90721e-20)
(1.03736 0.183065 -1.68788e-19)
(1.16947 0.22099 1.04817e-19)
(1.24138 0.24131 -1.44418e-19)
(1.27079 0.247399 9.29099e-20)
(1.27698 0.243299 2.55829e-19)
(0.0400131 -0.00374396 -1.1428e-19)
(0.193183 -0.00121631 -2.39208e-19)
(0.413748 0.0340502 -3.02472e-20)
(0.668609 0.0904953 2.85843e-19)
(0.907675 0.153699 8.94057e-20)
(1.0894 0.206694 1.94954e-19)
(1.20183 0.240716 3.18218e-19)
(1.25701 0.256542 6.98707e-20)
(1.27532 0.258732 7.13174e-20)
(1.27544 0.252649 -1.88816e-19)
(0.0529273 -0.00365568 1.03569e-20)
(0.231453 0.0037811 1.63882e-19)
(0.473357 0.0484234 1.70557e-19)
(0.737242 0.113192 -1.83747e-19)
(0.969077 0.17942 2.30073e-19)
(1.13323 0.230331 -1.98915e-19)
(1.22674 0.259836 -4.34076e-20)
(1.26722 0.271127 -6.55884e-20)
(1.27653 0.269693 -6.83006e-20)
(1.27205 0.261857 -9.85293e-20)
(0.0672311 -0.0027404 -1.06803e-20)
(0.27202 0.0112539 -1.67042e-20)
(0.53351 0.0660755 -1.24644e-20)
(0.802385 0.138392 -1.00728e-20)
(1.02354 0.20611 4.76594e-20)
(1.16925 0.253798 5.24508e-20)
(1.24508 0.278367 -5.45573e-20)
(1.27293 0.285185 -3.8631e-20)
(1.2751 0.280404 -4.23379e-20)
(1.26718 0.270998 1.2858e-19)
(0.0828209 -0.000850398 -1.7076e-20)
(0.314316 0.0214175 4.47388e-20)
(0.593075 0.0869309 7.06098e-20)
(0.862982 0.16573 -2.18221e-20)
(1.07081 0.233445 -1.5684e-19)
(1.19797 0.276969 -1.21165e-19)
(1.25771 0.296348 -4.40144e-21)
(1.27493 0.298823 8.97904e-20)
(1.27153 0.290958 -1.38644e-20)
(1.26109 0.280109 -3.55949e-20)
(0.0995467 0.00215163 -4.59983e-20)
(0.357682 0.0344183 2.47882e-20)
(0.650954 0.110816 -2.66161e-20)
(0.918223 0.194831 5.84341e-21)
(1.11088 0.26115 1.89282e-20)
(1.21998 0.29976 2.65721e-20)
(1.26539 0.313824 -4.61205e-21)
(1.27384 0.312124 -5.334e-20)
(1.2662 0.30141 3.17846e-21)
(1.25395 0.289195 1.7048e-20)
(0.117214 0.00638585 -1.53173e-20)
(0.401396 0.0503225 -1.398e-23)
(0.706131 0.137475 3.83206e-21)
(0.967544 0.225322 -3.70269e-21)
(1.14393 0.288989 2.53668e-20)
(1.23592 0.322109 8.46303e-21)
(1.26879 0.330837 4.69807e-21)
(1.27013 0.325147 -1.80262e-21)
(1.25935 0.311783 -7.59033e-21)
(1.24585 0.298239 -1.59854e-20)
(0.135588 0.0119488 -7.28755e-21)
(0.444703 0.0691112 -2.20695e-20)
(0.757719 0.16659 1.65634e-20)
(1.01059 0.256843 -1.67009e-21)
(1.17023 0.316753 1.53991e-20)
(1.24636 0.343968 1.37043e-20)
(1.26848 0.347414 1.0525e-20)
(1.26418 0.337922 -8.20131e-21)
(1.25116 0.322072 -8.18659e-21)
(1.23686 0.307202 -1.27988e-20)
(0.154399 0.0189074 -2.59041e-20)
(0.486846 0.0906803 -2.5617e-20)
(0.804971 0.197798 -1.61691e-20)
(1.04719 0.289047 -1.53839e-20)
(1.19014 0.34426 3.19824e-20)
(1.25186 0.365289 4.43429e-20)
(1.26492 0.363563 -5.70668e-21)
(1.25627 0.350452 -3.98676e-20)
(1.24174 0.332246 -6.42307e-21)
(1.227 0.316035 -5.44621e-21)
(0.173353 0.0272943 -2.96503e-20)
(0.527096 0.114845 1.40202e-20)
(0.847297 0.230704 3.88778e-20)
(1.0773 0.321602 1.42218e-20)
(1.20406 0.371337 -1.97629e-19)
(1.25292 0.386023 -2.39021e-20)
(1.2585 0.379274 -2.49595e-20)
(1.2466 0.362715 6.96597e-20)
(1.23117 0.342251 -2.56598e-20)
(1.21632 0.324678 -1.15495e-20)
(0.192137 0.0371048 2.90847e-20)
(0.564773 0.141349 -6.58092e-20)
(0.884255 0.264895 -1.19794e-19)
(1.10101 0.354189 3.43299e-20)
(1.21237 0.397823 9.39248e-20)
(1.24996 0.40611 1.83854e-20)
(1.24951 0.394515 1.31999e-20)
(1.23532 0.374664 -2.75192e-20)
(1.2195 0.352016 -3.27784e-20)
(1.20482 0.33306 7.5728e-20)
(0.210431 0.048295 6.29948e-20)
(0.599272 0.169872 2.8153e-19)
(0.915539 0.299946 4.37286e-20)
(1.11847 0.386501 -1.71273e-19)
(1.21549 0.423563 8.95466e-20)
(1.24337 0.425482 -1.17536e-20)
(1.2382 0.409236 -1.36498e-19)
(1.22253 0.386232 1.12105e-20)
(1.20676 0.361449 -2.68985e-20)
(1.19249 0.341104 -5.74851e-20)
(0.227918 0.060782 -2.64234e-19)
(0.63007 0.200044 -2.98107e-19)
(0.940973 0.335431 -4.86189e-20)
(1.12991 0.418242 4.2541e-19)
(1.21379 0.4484 -1.77573e-20)
(1.2335 0.444056 2.42265e-19)
(1.22477 0.423369 1.53228e-19)
(1.2083 0.397339 1.18411e-19)
(1.19294 0.370456 2.19501e-20)
(1.17924 0.348733 -6.3055e-20)
(0.244292 0.0744459 2.48185e-19)
(0.656742 0.231457 -2.4808e-19)
(0.960488 0.370924 1.52607e-19)
(1.13559 0.449129 -1.57932e-19)
(1.20764 0.472178 3.60306e-20)
(1.22062 0.46174 -1.7414e-19)
(1.20938 0.436834 1.06786e-20)
(1.19271 0.407907 -1.62325e-20)
(1.17802 0.378977 2.24736e-20)
(1.16485 0.355873 1.06721e-19)
(0.259268 0.0891328 1.98059e-20)
(0.678957 0.263673 7.73394e-20)
(0.974107 0.406006 -1.10594e-19)
(1.1358 0.478888 -4.27667e-20)
(1.19739 0.494741 -7.66783e-20)
(1.20499 0.478429 1.54371e-19)
(1.19217 0.449536 -1.84369e-19)
(1.17582 0.417859 -5.62001e-20)
(1.16203 0.387026 2.29658e-20)
(1.14927 0.362412 -3.32314e-20)
(0.272587 0.104659 3.50962e-20)
(0.696486 0.29624 1.32984e-19)
(0.981934 0.440269 4.86113e-19)
(1.13086 0.507256 -3.50367e-19)
(1.18337 0.515929 -1.51045e-19)
(1.18685 0.494007 -7.09523e-20)
(1.17325 0.461363 1.73538e-19)
(1.1577 0.427083 5.51584e-20)
(1.14504 0.394604 -7.97011e-20)
(1.13304 0.368259 -2.96871e-20)
(0.284025 0.120814 -1.00618e-19)
(0.709196 0.328701 -2.19992e-19)
(0.984135 0.473319 -3.60225e-19)
(1.1211 0.533979 2.7609e-19)
(1.16588 0.535585 7.14337e-21)
(1.16638 0.508353 -1.63959e-19)
(1.15275 0.472196 6.15835e-20)
(1.13843 0.435459 -3.96484e-21)
(1.12703 0.401435 3.71335e-20)
(1.11634 0.373526 -6.82156e-21)
(0.293397 0.13737 -5.49957e-20)
(0.717036 0.360603 3.67323e-19)
(0.980932 0.504779 4.1321e-19)
(1.10687 0.558817 9.16671e-20)
(1.14523 0.553553 -6.24509e-20)
(1.1438 0.521339 3.19005e-19)
(1.13081 0.481916 -1.03579e-19)
(1.11805 0.442907 3.49746e-20)
(1.10803 0.407403 1.00108e-19)
(1.09899 0.377998 1.47462e-20)
(0.30056 0.154083 -2.19538e-19)
(0.720036 0.391507 1.08622e-19)
(0.972596 0.534292 -3.3076e-19)
(1.0885 0.581542 -1.39684e-19)
(1.1217 0.569681 7.36597e-20)
(1.11931 0.532826 -4.30725e-21)
(1.10756 0.490401 -1.57468e-19)
(1.09661 0.449317 -6.76677e-20)
(1.08819 0.412413 -5.5207e-20)
(1.08098 0.381589 -7.2805e-21)
(0.305414 0.170702 -1.58319e-19)
(0.7183 0.420992 -4.16433e-19)
(0.959454 0.561529 3.05437e-19)
(1.06635 0.601934 3.1704e-21)
(1.09556 0.583804 5.52351e-20)
(1.0931 0.542687 -1.40901e-19)
(1.08306 0.497529 1.32016e-19)
(1.0742 0.454578 6.71747e-20)
(1.06756 0.416375 1.36228e-20)
(1.06236 0.384209 2.1227e-20)
(0.307903 0.186976 1.70915e-19)
(0.712011 0.448658 3.60018e-20)
(0.941895 0.586211 -2.5891e-19)
(1.04072 0.619774 5.56764e-20)
(1.06707 0.595769 -6.6631e-20)
(1.06532 0.550781 -8.49032e-20)
(1.05745 0.503185 -4.8663e-21)
(1.05091 0.458583 -6.20342e-20)
(1.04622 0.41919 4.3653e-21)
(1.04321 0.385785 -3.27019e-20)
(0.30802 0.202653 -1.4971e-19)
(0.701439 0.474118 5.0793e-19)
(0.920274 0.6081 -2.66168e-19)
(1.01186 0.634867 2.17437e-19)
(1.03652 0.60541 1.64388e-19)
(1.03618 0.55698 -1.21603e-20)
(1.03086 0.507257 -5.4263e-20)
(1.02685 0.461233 2.08131e-20)
(1.02426 0.420758 -4.21697e-20)
(1.02362 0.386222 1.46956e-20)
(0.305823 0.21749 9.08948e-20)
(0.686909 0.497045 -1.4534e-19)
(0.894694 0.626825 2.83605e-19)
(0.980263 0.647142 -8.98414e-20)
(1.00421 0.612576 -8.287e-20)
(1.00587 0.561164 9.21637e-20)
(1.00344 0.509642 2.68791e-21)
(1.00214 0.462442 4.05594e-21)
(1.00176 0.420985 -4.21578e-21)
(1.00367 0.38543 1.38239e-20)
(0.301404 0.231239 -1.18046e-19)
(0.668696 0.517309 -4.53297e-20)
(0.865423 0.642056 -6.09929e-20)
(0.946385 0.656334 -1.98843e-20)
(0.970407 0.617211 -9.12855e-20)
(0.974574 0.563232 5.87719e-21)
(0.975324 0.510241 -1.92483e-20)
(0.976872 0.462129 -7.02912e-20)
(0.978865 0.419805 1.97979e-19)
(0.983634 0.383364 9.3933e-20)
(0.294847 0.243566 1.37445e-19)
(0.64692 0.534558 -1.85111e-19)
(0.833267 0.653942 -1.6095e-20)
(0.91058 0.662244 -8.96841e-20)
(0.935366 0.619193 3.24759e-20)
(0.942485 0.563091 -6.38768e-20)
(0.946644 0.508958 1.71109e-21)
(0.951153 0.460192 -1.61976e-20)
(0.955842 0.41714 -5.85909e-20)
(0.964207 0.38006 -1.82165e-19)
(0.286186 0.254251 -8.63603e-21)
(0.621841 0.548275 4.91985e-20)
(0.798713 0.662231 -5.66097e-20)
(0.873141 0.664881 3.45546e-20)
(0.899343 0.618442 5.60774e-20)
(0.909784 0.560658 6.49799e-20)
(0.917502 0.505698 1.8739e-19)
(0.925086 0.456468 4.14879e-20)
(0.933075 0.412744 -1.07717e-19)
(0.946066 0.375499 -4.20961e-21)
(0.275648 0.263146 2.45191e-20)
(0.594052 0.558354 1.25365e-20)
(0.762071 0.666719 1.26414e-20)
(0.834406 0.664168 9.73747e-21)
(0.8626 0.614892 4.73198e-20)
(0.876647 0.55588 -3.51002e-22)
(0.888008 0.50041 -3.10186e-19)
(0.898823 0.450835 3.01085e-20)
(0.910816 0.406163 1.0959e-20)
(0.928362 0.368787 5.19051e-20)
(0.263446 0.270159 7.08334e-21)
(0.563973 0.56467 -2.20831e-20)
(0.72375 0.667271 -6.54363e-20)
(0.794724 0.660044 3.19834e-20)
(0.8254 0.608502 7.11647e-21)
(0.843267 0.548729 -2.32375e-19)
(0.858337 0.493104 2.31053e-19)
(0.872594 0.44344 -2.03562e-19)
(0.888927 0.397618 2.2074e-19)
(0.908239 0.356069 -1.23668e-19)
(0.249759 0.27513 5.05602e-20)
(0.532037 0.567115 4.99597e-20)
(0.684176 0.663823 1.36021e-19)
(0.754445 0.652471 1.24128e-19)
(0.788007 0.599245 3.69306e-20)
(0.809858 0.539177 -6.20027e-23)
(0.828741 0.483758 -1.45214e-19)
(0.846619 0.434428 3.09409e-20)
(0.866381 0.389197 -2.21645e-19)
(0.88503 0.349252 2.84281e-19)
(0.234812 0.277937 -2.83051e-21)
(0.498674 0.565608 -4.55501e-20)
(0.643771 0.656347 -2.36825e-19)
(0.713914 0.641434 -1.31809e-19)
(0.750687 0.587108 -5.00825e-22)
(0.776642 0.527198 4.63384e-19)
(0.799432 0.47231 3.73044e-19)
(0.820986 0.423487 2.55953e-19)
(0.843819 0.378655 5.2655e-19)
(0.863346 0.338944 2.71696e-19)
(0.218849 0.278494 -8.04566e-21)
(0.464308 0.560106 1.89678e-19)
(0.602954 0.644851 7.09824e-20)
(0.67347 0.626947 -7.31925e-20)
(0.713703 0.572103 8.56685e-20)
(0.743833 0.512803 -6.67566e-19)
(0.77055 0.458801 -3.56211e-19)
(0.795682 0.410839 -1.79926e-19)
(0.821315 0.36696 -3.18583e-19)
(0.842399 0.328366 -1.05956e-19)
(0.202121 0.276742 -3.41302e-20)
(0.429364 0.550601 -3.842e-19)
(0.562135 0.629373 3.81639e-20)
(0.633448 0.609049 1.76515e-19)
(0.677317 0.554257 -6.23429e-20)
(0.711649 0.496009 9.96285e-20)
(0.742271 0.44323 3.15027e-19)
(0.770883 0.396409 -1.35116e-19)
(0.799228 0.353725 -3.98771e-19)
(0.822285 0.316414 -1.76652e-20)
(0.184884 0.272652 8.78921e-20)
(0.394259 0.537124 1.06385e-19)
(0.521711 0.60998 1.9584e-19)
(0.59417 0.587805 -9.77658e-20)
(0.641787 0.533619 -4.0393e-19)
(0.680297 0.476853 -4.40801e-19)
(0.714757 0.42564 -1.62975e-19)
(0.746745 0.380267 4.82756e-19)
(0.777752 0.339078 3.9082e-19)
(0.802997 0.303227 4.35474e-19)
(0.167394 0.266221 -3.32866e-19)
(0.359404 0.519744 4.00939e-19)
(0.482067 0.586769 -2.94e-19)
(0.555952 0.563301 -2.61789e-19)
(0.607361 0.51026 5.87252e-19)
(0.649979 0.455392 5.26188e-19)
(0.688178 0.406073 6.25334e-19)
(0.723427 0.362438 -2.15708e-19)
(0.757036 0.322993 -2.17988e-19)
(0.784566 0.288738 -6.29929e-19)
(0.149904 0.257476 2.47039e-19)
(0.325194 0.498563 -8.93829e-20)
(0.443574 0.559864 3.60157e-19)
(0.519094 0.53565 -3.27619e-19)
(0.57428 0.484268 -4.53713e-20)
(0.620895 0.431697 -9.0633e-19)
(0.662702 0.384592 -4.09298e-19)
(0.701081 0.342976 2.24789e-19)
(0.737209 0.305504 8.67135e-20)
(0.767051 0.27298 -6.50314e-21)
(0.132664 0.246471 1.27237e-19)
(0.292012 0.473717 -3.43114e-19)
(0.406585 0.529419 -4.61022e-19)
(0.483883 0.504983 2.98206e-20)
(0.542776 0.455752 4.458e-19)
(0.593235 0.405858 -3.37864e-20)
(0.638489 0.361275 -1.49721e-19)
(0.67985 0.32194 -2.57275e-19)
(0.718387 0.286651 -4.8119e-19)
(0.750522 0.255996 1.3326e-20)
(0.115912 0.233282 5.06282e-20)
(0.26022 0.445376 -5.0144e-20)
(0.371434 0.495611 7.55232e-19)
(0.450591 0.471457 2.96193e-19)
(0.513069 0.42484 -9.91464e-20)
(0.567182 0.377981 6.64442e-19)
(0.615696 0.33621 -3.36365e-19)
(0.659867 0.299404 4.06768e-19)
(0.700681 0.266491 1.57804e-19)
(0.73505 0.23785 -2.59663e-19)
(0.0998797 0.218013 1.6988e-19)
(0.23016 0.413736 2.433e-19)
(0.338433 0.458646 -8.71704e-19)
(0.419475 0.435245 -1.28597e-19)
(0.485366 0.391675 -5.64935e-19)
(0.54291 0.348189 7.3714e-20)
(0.594471 0.309501 9.1576e-20)
(0.641259 0.275456 1.38751e-19)
(0.684197 0.245096 4.90611e-19)
(0.720706 0.218614 1.01207e-19)
(0.0847827 0.200788 -2.31754e-19)
(0.202152 0.379023 3.23846e-19)
(0.307873 0.418748 1.94636e-20)
(0.39077 0.396542 8.1425e-20)
(0.459861 0.356419 5.61574e-19)
(0.520582 0.316617 1.02e-20)
(0.574953 0.281266 1.37057e-19)
(0.624145 0.250193 -6.69806e-20)
(0.669035 0.222551 -3.0812e-19)
(0.707561 0.198373 -9.03798e-20)
(0.0708225 0.181753 4.68338e-19)
(0.176487 0.341488 -3.56851e-19)
(0.28002 0.376165 4.45585e-19)
(0.364696 0.355559 -2.7465e-20)
(0.436734 0.31925 -1.10356e-20)
(0.50035 0.283416 -5.29317e-19)
(0.557272 0.251634 1.01059e-19)
(0.608636 0.223726 2.99391e-20)
(0.655289 0.198951 -1.20762e-19)
(0.69568 0.177217 5.23881e-19)
(0.058183 0.161072 -5.19816e-19)
(0.153432 0.301405 2.8232e-19)
(0.255115 0.331164 -2.78223e-19)
(0.341449 0.312525 -1.63282e-19)
(0.416146 0.280356 -4.76245e-20)
(0.482353 0.248747 1.21704e-19)
(0.541548 0.220744 1.71164e-19)
(0.594838 0.196176 1.71993e-19)
(0.64305 0.174401 -2.94588e-19)
(0.685125 0.155245 -1.97918e-19)
(0.0470295 0.138927 1.40724e-19)
(0.133222 0.259067 -6.78206e-20)
(0.23337 0.284029 -4.45803e-20)
(0.321204 0.267679 5.14071e-19)
(0.398245 0.239941 -9.34525e-20)
(0.466716 0.212784 -1.01695e-19)
(0.527891 0.188746 1.90133e-19)
(0.582848 0.167671 -9.15872e-20)
(0.632404 0.149017 6.69411e-20)
(0.675955 0.132559 1.32506e-19)
(0.0375062 0.115513 1.25414e-19)
(0.116062 0.214786 -4.06845e-20)
(0.21497 0.235058 9.11539e-20)
(0.304114 0.221277 -2.83177e-19)
(0.383155 0.198217 6.36056e-20)
(0.45355 0.175707 4.09041e-19)
(0.516401 0.155798 -2.44667e-19)
(0.572759 0.13835 -4.02768e-19)
(0.623435 0.12292 -1.21811e-19)
(0.668229 0.10927 4.865e-21)
(0.0297359 0.0910418 4.03184e-20)
(0.102126 0.168891 -1.24791e-19)
(0.200071 0.184564 2.46925e-19)
(0.290305 0.173582 -8.83715e-20)
(0.370984 0.155407 1.43994e-19)
(0.442946 0.137707 -3.3889e-19)
(0.507161 0.122062 1.68418e-19)
(0.564654 0.108356 1.42739e-19)
(0.616224 0.0962409 2.18351e-19)
(0.66201 0.0854951 -1.90873e-19)
(0.0238182 0.0657327 -1.42607e-19)
(0.0915525 0.121723 6.74218e-20)
(0.188797 0.132869 -1.11759e-19)
(0.279879 0.124869 -1.49279e-19)
(0.361814 0.111738 -3.1754e-19)
(0.434979 0.0989763 2.26879e-19)
(0.500243 0.0877032 -5.56486e-20)
(0.558606 0.0778337 1.68831e-19)
(0.610856 0.0691152 -1.48505e-19)
(0.657382 0.0613665 1.25493e-19)
(0.0198287 0.0398156 4.75488e-20)
(0.084447 0.0736326 -1.54053e-20)
(0.181241 0.0803058 -1.76659e-20)
(0.27291 0.0754169 1.2572e-19)
(0.355705 0.0674459 6.46531e-20)
(0.429697 0.0597117 -6.42034e-20)
(0.49569 0.052888 -9.16313e-21)
(0.55467 0.0469226 -1.76881e-19)
(0.607411 0.0416617 1.28218e-19)
(0.654457 0.0369759 3.86864e-20)
(0.0178185 0.0135268 -1.11216e-20)
(0.0808798 0.0249798 -2.45795e-20)
(0.177464 0.0272126 -1.38037e-20)
(0.269445 0.0255134 9.01227e-21)
(0.352692 0.022769 5.02619e-20)
(0.427124 0.0201144 9.06023e-21)
(0.493518 0.0177819 3.12314e-20)
(0.552857 0.0157543 5.6102e-20)
(0.605916 0.0139758 -5.20621e-21)
(0.653315 0.0123777 -5.52963e-20)
(0.0178135 -0.0128931 -2.07379e-20)
(0.0808857 -0.0238703 -2.95639e-20)
(0.177495 -0.0260668 4.9046e-21)
(0.269505 -0.0245505 -6.48396e-21)
(0.352786 -0.0220472 5.90894e-20)
(0.427258 -0.0196082 -1.9649e-21)
(0.493702 -0.017441 3.28889e-20)
(0.553108 -0.0155269 5.27679e-20)
(0.606271 -0.0138135 8.01577e-21)
(0.65385 -0.0122385 -6.40473e-20)
(0.0198142 -0.0392014 8.16289e-20)
(0.0844644 -0.0725505 1.63535e-20)
(0.181332 -0.0791865 -4.6854e-20)
(0.273084 -0.0744803 1.67772e-19)
(0.355976 -0.0667533 1.90824e-20)
(0.430079 -0.0592408 -2.81867e-20)
(0.496202 -0.052593 -1.01795e-20)
(0.555338 -0.0467601 -1.61841e-19)
(0.608273 -0.041599 1.07887e-19)
(0.655559 -0.0369974 -1.59414e-20)
(0.0237958 -0.0651558 -1.55062e-19)
(0.0915805 -0.120694 1.97766e-20)
(0.188941 -0.131801 -7.79422e-20)
(0.280154 -0.123982 -1.71942e-19)
(0.362235 -0.111098 -3.31988e-19)
(0.43556 -0.0985647 2.28738e-19)
(0.500996 -0.0874768 -9.68419e-22)
(0.559538 -0.0777522 1.54793e-19)
(0.611967 -0.0691477 -1.85442e-19)
(0.658652 -0.0614874 1.62892e-19)
(0.0297082 -0.0905175 -1.53413e-20)
(0.102163 -0.167937 1.07096e-20)
(0.200259 -0.183567 -8.48477e-20)
(0.290661 -0.172762 1.21661e-19)
(0.37152 -0.154835 8.97868e-20)
(0.443668 -0.137366 -3.94639e-19)
(0.508061 -0.121906 1.15903e-19)
(0.565708 -0.108342 3.06682e-19)
(0.617392 -0.0963309 9.44558e-20)
(0.663229 -0.0856506 -1.19895e-19)
(0.0374762 -0.115053 -2.6696e-20)
(0.116108 -0.213925 -1.09605e-19)
(0.215191 -0.234148 2.31583e-19)
(0.304528 -0.220537 -2.63129e-19)
(0.383769 -0.19772 -1.64463e-19)
(0.454353 -0.175437 5.96871e-19)
(0.517363 -0.155704 -4.75631e-19)
(0.57383 -0.138383 -2.70351e-19)
(0.624544 -0.123032 -8.80616e-20)
(0.669302 -0.109419 2.54338e-20)
(0.0470008 -0.138539 1.92766e-19)
(0.133275 -0.258311 8.98303e-20)
(0.233614 -0.283218 -7.52685e-20)
(0.321655 -0.267025 5.68683e-19)
(0.398901 -0.239521 -2.60021e-19)
(0.467551 -0.212578 5.72921e-20)
(0.528853 -0.1887 3.21577e-21)
(0.583866 -0.167729 -4.51621e-20)
(0.633398 -0.149128 1.05997e-19)
(0.676857 -0.132682 5.65477e-20)
(0.0581595 -0.16076 -4.0108e-19)
(0.153493 -0.300762 4.52655e-20)
(0.255373 -0.330458 -2.61179e-19)
(0.341918 -0.31196 -9.63916e-20)
(0.416816 -0.280009 8.33469e-20)
(0.483181 -0.248597 4.46835e-20)
(0.542466 -0.220732 4.19099e-20)
(0.595764 -0.196241 1.0242e-19)
(0.643907 -0.174497 -4.67311e-20)
(0.685863 -0.155334 -3.53524e-19)
(0.0708076 -0.181517 4.12277e-19)
(0.176558 -0.340961 -2.46633e-19)
(0.280285 -0.375567 4.59191e-19)
(0.365168 -0.355084 -5.96163e-20)
(0.437394 -0.318971 -1.11078e-19)
(0.501143 -0.283312 -4.40109e-19)
(0.558119 -0.251643 1.90643e-19)
(0.609453 -0.223789 -3.00325e-19)
(0.656009 -0.199024 1.98024e-19)
(0.696274 -0.177272 2.42539e-19)
(0.0847797 -0.200626 -3.10193e-19)
(0.202232 -0.378611 1.54178e-19)
(0.30814 -0.418257 3.31297e-19)
(0.391233 -0.396152 -3.89454e-20)
(0.460495 -0.356203 5.86914e-19)
(0.521322 -0.316551 4.15315e-20)
(0.575716 -0.281288 -3.29296e-20)
(0.624849 -0.250247 1.55667e-19)
(0.669628 -0.222601 -3.20136e-19)
(0.708034 -0.198397 -1.27263e-19)
(0.0998912 -0.217919 2.28597e-19)
(0.230253 -0.413433 3.22257e-19)
(0.338698 -0.458259 -8.47995e-19)
(0.41992 -0.434936 -3.09526e-19)
(0.485962 -0.391515 -1.06225e-19)
(0.543587 -0.348153 -1.98625e-19)
(0.595145 -0.30953 2.0629e-19)
(0.641856 -0.275498 -2.7713e-20)
(0.684679 -0.245124 5.10839e-19)
(0.721082 -0.218613 -4.34854e-20)
(0.11594 -0.233249 -5.9502e-20)
(0.260326 -0.445176 -1.7209e-19)
(0.371696 -0.495322 1.01752e-18)
(0.451014 -0.471223 1.42527e-19)
(0.513621 -0.424729 -1.30646e-19)
(0.567792 -0.37797 6.28144e-19)
(0.616282 -0.336241 3.47008e-22)
(0.660365 -0.299434 1.27467e-20)
(0.701068 -0.2665 1.66773e-19)
(0.735348 -0.23783 -2.48756e-20)
(0.132709 -0.24649 3.81621e-20)
(0.292133 -0.47361 -2.38725e-19)
(0.406844 -0.52922 -6.29802e-19)
(0.484281 -0.504819 2.81856e-19)
(0.543282 -0.455685 -1.70901e-20)
(0.593778 -0.405866 1.90672e-19)
(0.638991 -0.361307 4.20838e-20)
(0.68026 -0.321959 -4.96336e-19)
(0.718693 -0.286647 -3.9456e-19)
(0.750761 -0.255965 4.69577e-20)
(0.149968 -0.25754 -7.2271e-20)
(0.325332 -0.498539 -6.5911e-20)
(0.44383 -0.559748 4.69177e-19)
(0.519467 -0.535548 -2.10531e-19)
(0.57474 -0.484239 -2.08467e-19)
(0.621374 -0.431721 -7.32959e-19)
(0.663128 -0.384625 -3.80268e-19)
(0.701414 -0.342988 1.95049e-19)
(0.737449 -0.305492 4.8769e-20)
(0.767246 -0.272943 2.1798e-19)
(0.167475 -0.266321 -2.74995e-19)
(0.359559 -0.519792 3.91327e-19)
(0.482321 -0.586727 -6.41996e-19)
(0.556302 -0.563256 2.31813e-19)
(0.607777 -0.510264 2.23369e-19)
(0.650398 -0.45543 7.37398e-19)
(0.688537 -0.406105 4.74451e-19)
(0.723693 -0.362445 -2.43851e-19)
(0.757222 -0.322978 -3.59018e-19)
(0.784727 -0.288703 -3.75505e-19)
(0.184982 -0.272779 1.89003e-19)
(0.394433 -0.537233 3.25299e-20)
(0.521965 -0.610003 3.04201e-21)
(0.5945 -0.587809 -2.0429e-20)
(0.642163 -0.533652 -5.55618e-19)
(0.680661 -0.476903 -4.47347e-20)
(0.715056 -0.425674 -4.40617e-19)
(0.746955 -0.380272 3.81866e-19)
(0.777893 -0.339065 7.10254e-19)
(0.803136 -0.3032 3.55244e-19)
(0.202234 -0.276889 -2.18148e-19)
(0.429557 -0.550759 -3.51892e-19)
(0.562391 -0.629452 -1.34226e-21)
(0.633759 -0.609097 2.57344e-19)
(0.677657 -0.554315 -1.44366e-19)
(0.711966 -0.496069 2.8432e-19)
(0.742518 -0.443266 5.27757e-20)
(0.771046 -0.396415 -1.66549e-19)
(0.79933 -0.353717 -2.06209e-19)
(0.822409 -0.316406 -1.54225e-19)
(0.218975 -0.278654 -6.37307e-20)
(0.464519 -0.560303 1.6107e-19)
(0.603214 -0.644977 1.47017e-19)
(0.673766 -0.627031 3.05233e-21)
(0.714011 -0.572183 -9.37139e-20)
(0.744108 -0.512873 -5.02719e-19)
(0.770753 -0.458839 -4.26619e-19)
(0.795805 -0.410846 -5.5633e-20)
(0.821383 -0.36696 -4.95185e-19)
(0.842511 -0.328382 -2.26054e-19)
(0.234949 -0.278104 2.37119e-20)
(0.498902 -0.565835 -1.79506e-19)
(0.644037 -0.656511 -5.97419e-20)
(0.714198 -0.64155 -2.85203e-19)
(0.750969 -0.587207 1.69539e-19)
(0.776881 -0.527276 4.39059e-19)
(0.799598 -0.472351 2.31951e-19)
(0.821075 -0.423498 2.6215e-19)
(0.843852 -0.378669 5.87704e-19)
(0.863435 -0.339007 8.77663e-20)
(0.249905 -0.275298 7.176e-20)
(0.532281 -0.567362 3.0284e-20)
(0.684448 -0.664018 8.92484e-20)
(0.754722 -0.652613 9.8083e-20)
(0.788268 -0.599359 8.15268e-20)
(0.810067 -0.539261 -1.74928e-20)
(0.828877 -0.483802 -6.86308e-20)
(0.846687 -0.434438 -1.17723e-19)
(0.866397 -0.389207 -1.7688e-19)
(0.885108 -0.349334 2.93003e-19)
(0.263599 -0.270324 3.02023e-21)
(0.564231 -0.564931 -2.99931e-20)
(0.72403 -0.66749 -2.62695e-20)
(0.794996 -0.660208 -7.05187e-20)
(0.825643 -0.608628 1.01185e-19)
(0.843452 -0.548819 -2.19383e-19)
(0.858447 -0.49315 6.68399e-20)
(0.872644 -0.443455 3.76021e-20)
(0.888919 -0.397663 -6.49886e-22)
(0.90817 -0.356353 -1.18245e-19)
(0.275805 -0.263306 -3.43292e-21)
(0.594323 -0.558621 3.7433e-20)
(0.762359 -0.666955 1.045e-20)
(0.834675 -0.664348 1.65284e-20)
(0.862831 -0.615028 -1.24243e-20)
(0.876813 -0.555973 7.63038e-20)
(0.888097 -0.500456 -2.70605e-19)
(0.898862 -0.450842 7.93134e-20)
(0.910822 -0.406174 -1.76719e-19)
(0.928282 -0.368889 6.48662e-20)
(0.286346 -0.254402 -8.0211e-20)
(0.622123 -0.548542 1.08236e-19)
(0.79901 -0.662478 -4.1465e-20)
(0.873409 -0.665074 1.22005e-20)
(0.899565 -0.618585 5.52714e-20)
(0.909937 -0.560753 1.14071e-19)
(0.917579 -0.505742 1.73758e-19)
(0.925121 -0.456467 -4.32033e-20)
(0.933111 -0.412733 -8.33491e-20)
(0.946064 -0.375551 2.84877e-21)
(0.295007 -0.243707 2.00664e-19)
(0.647211 -0.534821 -1.859e-19)
(0.833571 -0.654194 -4.48422e-20)
(0.910851 -0.662446 -5.63361e-20)
(0.935583 -0.619342 2.48661e-20)
(0.942631 -0.563188 -4.95855e-20)
(0.946717 -0.509003 -3.84237e-20)
(0.951192 -0.460191 -2.09017e-20)
(0.955904 -0.41713 6.67573e-20)
(0.964271 -0.380109 -3.51623e-19)
(0.301561 -0.231369 -3.18109e-20)
(0.668992 -0.517563 -2.12385e-20)
(0.865737 -0.642311 -1.30069e-19)
(0.946659 -0.656543 -3.52673e-20)
(0.970623 -0.617365 -5.25586e-20)
(0.974716 -0.563332 -6.37123e-21)
(0.975397 -0.510289 -2.71628e-20)
(0.976918 -0.462135 -2.7273e-20)
(0.978943 -0.419805 2.29004e-19)
(0.983723 -0.383412 5.75901e-20)
(0.305977 -0.217608 3.38446e-19)
(0.687208 -0.497287 -1.94989e-19)
(0.895016 -0.627079 1.23517e-19)
(0.980543 -0.647353 2.08542e-20)
(1.00443 -0.612733 -6.06875e-20)
(1.00601 -0.561265 7.17162e-20)
(1.00351 -0.509693 1.22959e-20)
(1.00219 -0.462455 -1.81945e-20)
(1.00184 -0.420993 -3.03783e-20)
(1.00376 -0.385473 3.20304e-20)
(0.30817 -0.202758 -1.71768e-19)
(0.701738 -0.474347 4.25847e-19)
(0.920602 -0.60835 -1.12953e-19)
(1.01214 -0.63508 1.19071e-20)
(1.03674 -0.605568 2.45893e-19)
(1.03633 -0.557084 -2.93078e-20)
(1.03094 -0.507313 -2.90721e-20)
(1.02691 -0.461254 2.06667e-20)
(1.02434 -0.420772 -1.87272e-20)
(1.02371 -0.386262 8.3339e-21)
(0.308047 -0.18707 1.09917e-19)
(0.712311 -0.448873 6.70927e-20)
(0.942228 -0.586455 2.08067e-20)
(1.04101 -0.619985 -7.35811e-20)
(1.0673 -0.595928 -4.54537e-20)
(1.06547 -0.550888 -1.45539e-19)
(1.05753 -0.503245 -3.69929e-21)
(1.05097 -0.45861 -3.94004e-20)
(1.04631 -0.419211 -4.24152e-21)
(1.04329 -0.385823 -2.27808e-20)
(0.305552 -0.170785 -7.3307e-20)
(0.718596 -0.421191 -6.56815e-19)
(0.959791 -0.561763 3.85057e-19)
(1.06665 -0.602141 1.40953e-19)
(1.09579 -0.583963 -1.72646e-19)
(1.09325 -0.542796 -4.13404e-20)
(1.08315 -0.497592 1.01582e-19)
(1.07427 -0.454611 1.02023e-19)
(1.06764 -0.416402 1.35183e-21)
(1.06242 -0.384247 2.26278e-20)
(0.300691 -0.154154 -1.29492e-19)
(0.720327 -0.391689 2.32554e-19)
(0.972934 -0.534516 -5.55338e-19)
(1.08881 -0.581745 -1.52756e-19)
(1.12194 -0.569839 1.44314e-19)
(1.11947 -0.532936 2.68264e-20)
(1.10766 -0.490468 -1.46077e-19)
(1.09669 -0.449357 -7.23591e-20)
(1.08827 -0.412446 -7.00989e-20)
(1.08103 -0.381627 -9.34615e-21)
(0.293519 -0.137431 5.06035e-20)
(0.71732 -0.360768 4.69423e-19)
(0.98127 -0.50499 2.01711e-19)
(1.10718 -0.559015 1.9731e-19)
(1.14547 -0.553711 -5.34044e-20)
(1.14397 -0.521451 2.06576e-19)
(1.13092 -0.481987 -2.59424e-20)
(1.11813 -0.442952 6.64336e-20)
(1.10812 -0.407439 8.8292e-20)
(1.09904 -0.378037 -3.09831e-20)
(0.284137 -0.120865 -1.56554e-19)
(0.70947 -0.328848 -2.93138e-19)
(0.984472 -0.473517 -1.88154e-19)
(1.12142 -0.53417 1.45035e-19)
(1.16613 -0.535741 2.19507e-20)
(1.16656 -0.508466 -2.03953e-19)
(1.15286 -0.47227 2.4237e-20)
(1.13851 -0.435508 4.45889e-20)
(1.12711 -0.401475 2.93602e-20)
(1.11638 -0.373565 1.25299e-20)
(0.27269 -0.104701 1.04115e-19)
(0.696749 -0.296371 2.7094e-19)
(0.982267 -0.440453 2.43818e-19)
(1.13118 -0.507439 -2.63031e-19)
(1.18362 -0.516082 -1.63719e-19)
(1.18703 -0.49412 7.00649e-20)
(1.17337 -0.46144 1.03037e-19)
(1.15778 -0.427136 -1.59038e-20)
(1.14512 -0.394647 -7.09285e-20)
(1.13307 -0.368298 -1.9351e-20)
(0.259361 -0.0891669 6.8006e-20)
(0.679207 -0.263787 -1.19495e-20)
(0.974435 -0.406176 -1.13625e-19)
(1.13612 -0.479064 -1.51046e-20)
(1.19765 -0.494891 -1.96532e-20)