/*--------------------------------*- C++ -*----------------------------------*\
  =========                 |
  \\      /  F ield         | OpenFOAM: The Open Source CFD Toolbox
   \\    /   O peration     | Website:  https://openfoam.org
    \\  /    A nd           | Version:  7
     \\/     M anipulation  |
\*---------------------------------------------------------------------------*/
FoamFile
{
    version     2.0;
    format      ascii;
    class       volScalarField;
    location    "10";
    object      p;
}
// * * * * * * * * * * * * * * * * * * * * * * * * * * * * * * * * * * * * * //

dimensions      [0 2 -2 0 0 0 0];

internalField   nonuniform List<scalar> 
8500
(
-0.369096
-0.372591
-0.37199
-0.369141
-0.364389
-0.357939
-0.35008
-0.341117
-0.331262
-0.320564
-0.370166
-0.373471
-0.372745
-0.36978
-0.364921
-0.358373
-0.350422
-0.341383
-0.331449
-0.320571
-0.372301
-0.375228
-0.374249
-0.371054
-0.36598
-0.359235
-0.351101
-0.341911
-0.331817
-0.320579
-0.375488
-0.377849
-0.376495
-0.372954
-0.36756
-0.360521
-0.352112
-0.342692
-0.332359
-0.320572
-0.379711
-0.381322
-0.379468
-0.375469
-0.369649
-0.362218
-0.353444
-0.343715
-0.333059
-0.320531
-0.384946
-0.385625
-0.383151
-0.378583
-0.372233
-0.364315
-0.355082
-0.344966
-0.3339
-0.320427
-0.391166
-0.390736
-0.387522
-0.382276
-0.375295
-0.366795
-0.357013
-0.346427
-0.334862
-0.320226
-0.39834
-0.396624
-0.392556
-0.386527
-0.378817
-0.369644
-0.359222
-0.348081
-0.335923
-0.319886
-0.406432
-0.403258
-0.398223
-0.391311
-0.382778
-0.372844
-0.361693
-0.349911
-0.337058
-0.319361
-0.415399
-0.410601
-0.404492
-0.396599
-0.387156
-0.376378
-0.364412
-0.351904
-0.338246
-0.318596
-0.425197
-0.418611
-0.411324
-0.402362
-0.391928
-0.38023
-0.36737
-0.354048
-0.339466
-0.317532
-0.435773
-0.427239
-0.418678
-0.408566
-0.397071
-0.384389
-0.370562
-0.356343
-0.340706
-0.316108
-0.447068
-0.436431
-0.426509
-0.415176
-0.402561
-0.388842
-0.373991
-0.358795
-0.341963
-0.31426
-0.459011
-0.446125
-0.434765
-0.422153
-0.408372
-0.393582
-0.377667
-0.36143
-0.343247
-0.311936
-0.47152
-0.456253
-0.443387
-0.429452
-0.41448
-0.398606
-0.381615
-0.364297
-0.344613
-0.309133
-0.484499
-0.466733
-0.452311
-0.437025
-0.420854
-0.40391
-0.38587
-0.367479
-0.346192
-0.305984
-0.497834
-0.477475
-0.461463
-0.444817
-0.427463
-0.409492
-0.390479
-0.371089
-0.348122
-0.302608
-0.511395
-0.488378
-0.47076
-0.452763
-0.434264
-0.415348
-0.395514
-0.375259
-0.350289
-0.29839
-0.525034
-0.49933
-0.480111
-0.46079
-0.441206
-0.421477
-0.401108
-0.380319
-0.353042
-0.293606
-0.538591
-0.510209
-0.489413
-0.468809
-0.448215
-0.427843
-0.407375
-0.386934
-0.36046
-0.304188
-0.551897
-0.520888
-0.498555
-0.476713
-0.45517
-0.434282
-0.41403
-0.394841
-0.376973
-0.37248
-0.56478
-0.531233
-0.507421
-0.484386
-0.461921
-0.440501
-0.420326
-0.401797
-0.387222
-0.395416
-0.577072
-0.541117
-0.515895
-0.491712
-0.468335
-0.446301
-0.425888
-0.407221
-0.392448
-0.401707
-0.588619
-0.550411
-0.523866
-0.498592
-0.474313
-0.451591
-0.430698
-0.411505
-0.395769
-0.403825
-0.599277
-0.558998
-0.531229
-0.504928
-0.47977
-0.456315
-0.434777
-0.414836
-0.397911
-0.403405
-0.608918
-0.566761
-0.53788
-0.510629
-0.484628
-0.460413
-0.438114
-0.417247
-0.398934
-0.401179
-0.617423
-0.573591
-0.543717
-0.515602
-0.488803
-0.463819
-0.44068
-0.418763
-0.39894
-0.397709
-0.624682
-0.579379
-0.548638
-0.519753
-0.492211
-0.466464
-0.442436
-0.419394
-0.398015
-0.393271
-0.630586
-0.584018
-0.552541
-0.522984
-0.494761
-0.46827
-0.443329
-0.419127
-0.396192
-0.387982
-0.635029
-0.587401
-0.555319
-0.525194
-0.496358
-0.469152
-0.443294
-0.417925
-0.393466
-0.381882
-0.637901
-0.589416
-0.556864
-0.526278
-0.496903
-0.469019
-0.442257
-0.415737
-0.389805
-0.374971
-0.639086
-0.589951
-0.557067
-0.526128
-0.496291
-0.467775
-0.440136
-0.412499
-0.385161
-0.367222
-0.638466
-0.588891
-0.555812
-0.524631
-0.494414
-0.465321
-0.436843
-0.408138
-0.379476
-0.358597
-0.635918
-0.586118
-0.552986
-0.521677
-0.491165
-0.461554
-0.432288
-0.402579
-0.372682
-0.349046
-0.631313
-0.581516
-0.548474
-0.517153
-0.486435
-0.456373
-0.42638
-0.395739
-0.364708
-0.338514
-0.624525
-0.574965
-0.542162
-0.510946
-0.480115
-0.449677
-0.419026
-0.38754
-0.355483
-0.326944
-0.615428
-0.566352
-0.533937
-0.502948
-0.472102
-0.441367
-0.410138
-0.377903
-0.344937
-0.314276
-0.603901
-0.555567
-0.523695
-0.493055
-0.462295
-0.43135
-0.399633
-0.366754
-0.333006
-0.300455
-0.58983
-0.542507
-0.511334
-0.48117
-0.4506
-0.419539
-0.387432
-0.354025
-0.319629
-0.285428
-0.573114
-0.527078
-0.496764
-0.467203
-0.436934
-0.405857
-0.373467
-0.339656
-0.304756
-0.269149
-0.553665
-0.509201
-0.479906
-0.451079
-0.421221
-0.390235
-0.357678
-0.323599
-0.288345
-0.251578
-0.531406
-0.488804
-0.46069
-0.432727
-0.403399
-0.372617
-0.340018
-0.305813
-0.270366
-0.232685
-0.506287
-0.465838
-0.439066
-0.412098
-0.38342
-0.352962
-0.320453
-0.286273
-0.250801
-0.212448
-0.478276
-0.44027
-0.414998
-0.389157
-0.361252
-0.331242
-0.298963
-0.264967
-0.229644
-0.190858
-0.447369
-0.412088
-0.38847
-0.363886
-0.336879
-0.307448
-0.275546
-0.241897
-0.206906
-0.167916
-0.413584
-0.381302
-0.359488
-0.336289
-0.310306
-0.281589
-0.250215
-0.217083
-0.182609
-0.143638
-0.376966
-0.347945
-0.328076
-0.306387
-0.281557
-0.253691
-0.223001
-0.190556
-0.156789
-0.11805
-0.33759
-0.312074
-0.294283
-0.274226
-0.250675
-0.223802
-0.193954
-0.162368
-0.129499
-0.0911581
-0.295557
-0.273769
-0.258181
-0.239872
-0.217727
-0.191989
-0.163145
-0.132598
-0.100844
-0.0628997
-0.250995
-0.233136
-0.219864
-0.203415
-0.182801
-0.158341
-0.130664
-0.101344
-0.0709747
-0.0334191
-0.204059
-0.190304
-0.179449
-0.164964
-0.146005
-0.122967
-0.0966192
-0.0686706
-0.0395379
-0.00346944
-0.154929
-0.145425
-0.137077
-0.124655
-0.107471
-0.0859961
-0.0611394
-0.034733
-0.00704991
0.027557
-0.103807
-0.0986726
-0.0929075
-0.0826408
-0.0673486
-0.0475787
-0.0243726
0.000332912
0.0263746
0.0594913
-0.0509137
-0.0502399
-0.0471228
-0.0390946
-0.025809
-0.00788428
0.0135137
0.0363688
0.0606184
0.0921154
0.003522
-0.000350589
8.13625e-05
0.00579176
0.0169608
0.0329009
0.0523314
0.0731893
0.0955108
0.125212
0.0592238
0.0507886
0.0484869
0.0518107
0.0607581
0.0745753
0.0918749
0.11059
0.130852
0.158489
0.115938
0.102927
0.0978648
0.0987416
0.105368
0.116925
0.131925
0.148364
0.166455
0.191472
0.173389
0.155811
0.147974
0.146353
0.150566
0.159727
0.17225
0.186302
0.202103
0.223448
0.231295
0.209178
0.198564
0.194405
0.196122
0.202752
0.212606
0.224109
0.237102
0.25327
0.289363
0.262754
0.249376
0.242654
0.241809
0.245791
0.252791
0.261394
0.269736
0.276494
0.347293
0.316259
0.300141
0.290849
0.287406
0.28868
0.292759
0.298194
0.299392
0.287122
0.40479
0.369412
0.350591
0.338738
0.33269
0.331269
0.33252
0.335158
0.333534
0.320869
0.461541
0.42192
0.400446
0.386057
0.377415
0.373327
0.371841
0.371804
0.368291
0.357038
0.517234
0.473489
0.449425
0.432536
0.421322
0.414592
0.41041
0.407673
0.401984
0.390817
0.571555
0.523825
0.497243
0.477905
0.464151
0.454805
0.447954
0.442515
0.434522
0.422617
0.624193
0.572637
0.543623
0.521895
0.505648
0.493724
0.484233
0.476107
0.465794
0.452695
0.674846
0.61964
0.588292
0.564249
0.545569
0.531118
0.519027
0.508242
0.495603
0.481014
0.723217
0.664558
0.630984
0.604714
0.583679
0.566768
0.552137
0.538741
0.523789
0.507519
0.769027
0.707125
0.671446
0.643052
0.619754
0.600472
0.583383
0.567451
0.550231
0.532172
0.812007
0.747089
0.709437
0.679036
0.653588
0.632042
0.612599
0.594236
0.574829
0.554944
0.851909
0.784214
0.744732
0.712454
0.684986
0.661305
0.639637
0.618974
0.597492
0.575801
0.888501
0.818279
0.777121
0.743111
0.713769
0.688103
0.664361
0.641556
0.618138
0.594707
0.921573
0.849083
0.806412
0.770828
0.739775
0.712291
0.68665
0.661884
0.636691
0.611628
0.950934
0.876445
0.83243
0.795442
0.762857
0.733742
0.706395
0.679868
0.653084
0.626528
0.976417
0.900203
0.855024
0.81681
0.782885
0.752343
0.7235
0.695432
0.667256
0.639372
0.997878
0.920217
0.874058
0.83481
0.799749
0.767994
0.737882
0.708508
0.679151
0.650129
1.01519
0.936371
0.889421
0.849335
0.813354
0.780615
0.749472
0.719038
0.688725
0.658771
1.02827
0.94857
0.901024
0.860304
0.823624
0.790139
0.758214
0.726977
0.695939
0.665274
1.03702
0.956743
0.908797
0.867651
0.830503
0.796516
0.764065
0.732289
0.700765
0.669619
1.04141
0.960841
0.912694
0.871335
0.833951
0.799713
0.766998
0.734951
0.703182
0.671796
1.04141
0.960841
0.912694
0.871335
0.833951
0.799713
0.766998
0.734951
0.703182
0.671796
1.03702
0.956743
0.908797
0.867651
0.830503
0.796516
0.764065
0.732289
0.700765
0.669619
1.02827
0.94857
0.901024
0.860304
0.823624
0.790139
0.758214
0.726977
0.695939
0.665274
1.01519
0.936371
0.889421
0.849335
0.813354
0.780615
0.749472
0.719038
0.688725
0.658771
0.997878
0.920217
0.874058
0.83481
0.799749
0.767994
0.737882
0.708508
0.679151
0.650129
0.976417
0.900203
0.855024
0.81681
0.782885
0.752343
0.7235
0.695432
0.667256
0.639372
0.950934
0.876445
0.83243
0.795442
0.762857
0.733742
0.706395
0.679868
0.653084
0.626528
0.921573
0.849083
0.806412
0.770828
0.739775
0.712291
0.68665
0.661884
0.636691
0.611628
0.888501
0.818279
0.777121
0.743111
0.713769
0.688103
0.664361
0.641556
0.618138
0.594707
0.851909
0.784214
0.744732
0.712454
0.684986
0.661305
0.639637
0.618974
0.597492
0.575801
0.812007
0.747089
0.709437
0.679036
0.653588
0.632042
0.612599
0.594236
0.574829
0.554944
0.769027
0.707125
0.671446
0.643052
0.619754
0.600472
0.583383
0.567451
0.550231
0.532172
0.723217
0.664558
0.630984
0.604714
0.583679
0.566768
0.552137
0.538741
0.523789
0.507519
0.674846
0.61964
0.588292
0.564249
0.545569
0.531117
0.519027
0.508242
0.495603
0.481014
0.624193
0.572637
0.543623
0.521895
0.505648
0.493724
0.484233
0.476107
0.465794
0.452695
0.571555
0.523825
0.497243
0.477905
0.464151
0.454805
0.447954
0.442515
0.434522
0.422617
0.517234
0.473489
0.449424
0.432536
0.421322
0.414592
0.41041
0.407673
0.401984
0.390817
0.461541
0.42192
0.400446
0.386057
0.377415
0.373327
0.371841
0.371804
0.368291
0.357038
0.40479
0.369412
0.350591
0.338738
0.33269
0.331268
0.33252
0.335158
0.333534
0.320869
0.347293
0.316259
0.300141
0.290849
0.287406
0.28868
0.292758
0.298194
0.299392
0.287122
0.289363
0.262754
0.249375
0.242654
0.241809
0.245791
0.25279
0.261394
0.269736
0.276494
0.231295
0.209178
0.198564
0.194405
0.196122
0.202752
0.212606
0.224109
0.237102
0.25327
0.173389
0.155811
0.147974
0.146353
0.150566
0.159727
0.17225
0.186302
0.202103
0.223448
0.115937
0.102927
0.0978647
0.0987416
0.105368
0.116925
0.131925
0.148363
0.166455
0.191471
0.0592238
0.0507886
0.0484868
0.0518106
0.060758
0.0745752
0.0918749
0.11059
0.130852
0.158489
0.00352193
-0.000350658
8.12927e-05
0.00579169
0.0169607
0.0329008
0.0523313
0.0731892
0.0955108
0.125211
-0.0509138
-0.0502399
-0.0471229
-0.0390946
-0.0258091
-0.00788435
0.0135136
0.0363687
0.0606184
0.0921153
-0.103807
-0.0986727
-0.0929076
-0.0826408
-0.0673487
-0.0475788
-0.0243726
0.000332836
0.0263745
0.0594912
-0.154929
-0.145426
-0.137077
-0.124655
-0.107471
-0.0859962
-0.0611395
-0.0347331
-0.00704999
0.0275569
-0.204059
-0.190304
-0.179449
-0.164964
-0.146005
-0.122967
-0.0966193
-0.0686707
-0.039538
-0.00346952
-0.250995
-0.233136
-0.219864
-0.203415
-0.182801
-0.158341
-0.130664
-0.101344
-0.0709748
-0.0334192
-0.295557
-0.273769
-0.258181
-0.239872
-0.217727
-0.191989
-0.163145
-0.132598
-0.100844
-0.0628998
-0.33759
-0.312074
-0.294283
-0.274226
-0.250675
-0.223802
-0.193954
-0.162368
-0.129499
-0.0911582
-0.376966
-0.347945
-0.328076
-0.306388
-0.281557
-0.253691
-0.223001
-0.190557
-0.156789
-0.11805
-0.413584
-0.381302
-0.359488
-0.336289
-0.310306
-0.281589
-0.250215
-0.217083
-0.182609
-0.143638
-0.447369
-0.412088
-0.38847
-0.363886
-0.336879
-0.307448
-0.275546
-0.241897
-0.206906
-0.167916
-0.478276
-0.44027
-0.414998
-0.389157
-0.361252
-0.331242
-0.298963
-0.264967
-0.229644
-0.190858
-0.506287
-0.465838
-0.439066
-0.412098
-0.38342
-0.352962
-0.320453
-0.286273
-0.250801
-0.212448
-0.531406
-0.488804
-0.46069
-0.432727
-0.4034
-0.372617
-0.340018
-0.305813
-0.270366
-0.232685
-0.553665
-0.509201
-0.479906
-0.451079
-0.421222
-0.390235
-0.357679
-0.323599
-0.288345
-0.251578
-0.573114
-0.527078
-0.496764
-0.467203
-0.436934
-0.405857
-0.373467
-0.339656
-0.304756
-0.269149
-0.58983
-0.542507
-0.511334
-0.48117
-0.4506
-0.419539
-0.387432
-0.354025
-0.319629
-0.285428
-0.603901
-0.555567
-0.523695
-0.493055
-0.462295
-0.43135
-0.399633
-0.366754
-0.333006
-0.300455
-0.615429
-0.566353
-0.533937
-0.502948
-0.472102
-0.441367
-0.410138
-0.377903
-0.344937
-0.314276
-0.624525
-0.574965
-0.542162
-0.510946
-0.480116
-0.449677
-0.419026
-0.38754
-0.355483
-0.326944
-0.631313
-0.581516
-0.548474
-0.517153
-0.486435
-0.456373
-0.42638
-0.395739
-0.364708
-0.338514
-0.635918
-0.586118
-0.552986
-0.521677
-0.491166
-0.461554
-0.432289
-0.402579
-0.372682
-0.349046
-0.638467
-0.588891
-0.555812
-0.524632
-0.494414
-0.465321
-0.436843
-0.408139
-0.379476
-0.358597
-0.639086
-0.589951
-0.557067
-0.526128
-0.496291
-0.467775
-0.440136
-0.412499
-0.385161
-0.367222
-0.637901
-0.589416
-0.556865
-0.526278
-0.496903
-0.469019
-0.442257
-0.415737
-0.389805
-0.374971
-0.635029
-0.587401
-0.555319
-0.525194
-0.496359
-0.469152
-0.443294
-0.417925
-0.393466
-0.381882
-0.630586
-0.584018
-0.552541
-0.522984
-0.494761
-0.46827
-0.443329
-0.419127
-0.396192
-0.387982
-0.624682
-0.579379
-0.548638
-0.519753
-0.492211
-0.466464
-0.442436
-0.419394
-0.398015
-0.393271
-0.617424
-0.573591
-0.543717
-0.515602
-0.488803
-0.463819
-0.44068
-0.418763
-0.39894
-0.397709
-0.608918
-0.566761
-0.53788
-0.510629
-0.484628
-0.460413
-0.438114
-0.417247
-0.398935
-0.401179
-0.599277
-0.558998
-0.531229
-0.504928
-0.47977
-0.456315
-0.434777
-0.414836
-0.397911
-0.403405
-0.588619
-0.550411
-0.523866
-0.498592
-0.474313
-0.451591
-0.430698
-0.411505
-0.395769
-0.403825
-0.577072
-0.541117
-0.515895
-0.491712
-0.468335
-0.446301
-0.425888
-0.407221
-0.392448
-0.401707
-0.56478
-0.531234
-0.507421
-0.484386
-0.461921
-0.440501
-0.420326
-0.401797
-0.387222
-0.395416
-0.551898
-0.520888
-0.498555
-0.476713
-0.45517
-0.434282
-0.41403
-0.394841
-0.376973
-0.37248
-0.538592
-0.510209
-0.489413
-0.468809
-0.448215
-0.427843
-0.407375
-0.386934
-0.36046
-0.304188
-0.525034
-0.49933
-0.480111
-0.46079
-0.441206
-0.421477
-0.401108
-0.380319
-0.353042
-0.293606
-0.511395
-0.488378
-0.47076
-0.452763
-0.434264
-0.415348
-0.395514
-0.375259
-0.350289
-0.29839
-0.497834
-0.477475
-0.461463
-0.444817
-0.427463
-0.409492
-0.390479
-0.371089
-0.348122
-0.302608
-0.484499
-0.466733
-0.452311
-0.437025
-0.420854
-0.40391
-0.38587
-0.367479
-0.346192
-0.305984
-0.47152
-0.456253
-0.443387
-0.429452
-0.41448
-0.398606
-0.381615
-0.364297
-0.344613
-0.309133
-0.459011
-0.446125
-0.434765
-0.422153
-0.408372
-0.393582
-0.377667
-0.36143
-0.343247
-0.311936
-0.447068
-0.436431
-0.426509
-0.415176
-0.402561
-0.388842
-0.373991
-0.358795
-0.341963
-0.31426
-0.435773
-0.427239
-0.418678
-0.408566
-0.397071
-0.384389
-0.370562
-0.356343
-0.340706
-0.316108
-0.425197
-0.418611
-0.411324
-0.402362
-0.391928
-0.38023
-0.36737
-0.354048
-0.339466
-0.317532
-0.415399
-0.410601
-0.404492
-0.396599
-0.387156
-0.376378
-0.364412
-0.351904
-0.338246
-0.318596
-0.406432
-0.403258
-0.398223
-0.391311
-0.382778
-0.372844
-0.361693
-0.349911
-0.337058
-0.319361
-0.39834
-0.396624
-0.392556
-0.386527
-0.378817
-0.369644
-0.359222
-0.348081
-0.335923
-0.319886
-0.391166
-0.390736
-0.387522
-0.382276
-0.375295
-0.366796
-0.357013
-0.346427
-0.334862
-0.320226
-0.384946
-0.385625
-0.383151
-0.378583
-0.372233
-0.364315
-0.355082
-0.344966
-0.3339
-0.320427
-0.379711
-0.381322
-0.379468
-0.375469
-0.369649
-0.362218
-0.353444
-0.343715
-0.333059
-0.320531
-0.375488
-0.377849
-0.376495
-0.372954
-0.36756
-0.360521
-0.352112
-0.342692
-0.332359
-0.320572
-0.372301
-0.375228
-0.374249
-0.371054
-0.36598
-0.359236
-0.351101
-0.341911
-0.331817
-0.320579
-0.370166
-0.373471
-0.372745
-0.36978
-0.364921
-0.358373
-0.350422
-0.341383
-0.331449
-0.320571
-0.369096
-0.372591
-0.37199
-0.369141
-0.364389
-0.357939
-0.35008
-0.341117
-0.331262
-0.320564
-0.310811
-0.297054
-0.282922
-0.267719
-0.251871
-0.235696
-0.219426
-0.203297
-0.187487
-0.172141
-0.157364
-0.143231
-0.129791
-0.11707
-0.105086
-0.0938218
-0.0833013
-0.073429
-0.0643369
-0.0556757
-0.0480278
-0.0401811
-0.0342552
-0.0263002
-0.02316
-0.0128337
-0.0156291
0.00269984
-0.0144539
0.0258496
-0.311443
-0.297379
-0.283196
-0.267946
-0.25206
-0.235861
-0.219573
-0.20343
-0.187609
-0.172254
-0.157468
-0.143327
-0.129879
-0.11715
-0.105158
-0.0938867
-0.0833592
-0.0734805
-0.0643823
-0.0557158
-0.0480628
-0.0402121
-0.0342815
-0.026325
-0.0231781
-0.0128564
-0.0156368
0.00267141
-0.0144421
0.0257958
-0.312699
-0.298024
-0.283741
-0.268397
-0.252435
-0.236187
-0.219864
-0.203694
-0.187853
-0.172479
-0.157677
-0.143519
-0.130055
-0.11731
-0.105303
-0.0940163
-0.0834749
-0.0735831
-0.064473
-0.0557957
-0.0481326
-0.0402741
-0.0343338
-0.0263746
-0.0232142
-0.0129015
-0.015652
0.00261467
-0.0144184
0.0256885
-0.314572
-0.298982
-0.284549
-0.269067
-0.252992
-0.236672
-0.220296
-0.204089
-0.188216
-0.172816
-0.157988
-0.143806
-0.130318
-0.117549
-0.105519
-0.09421
-0.0836478
-0.0737366
-0.0646085
-0.0559153
-0.0482369
-0.0403668
-0.0344121
-0.0264486
-0.0232681
-0.0129691
-0.0156748
0.00252986
-0.014383
0.0255284
-0.317043
-0.300242
-0.285609
-0.269946
-0.253723
-0.237309
-0.220866
-0.204609
-0.188697
-0.173261
-0.1584
-0.144186
-0.130666
-0.117866
-0.105805
-0.0944671
-0.0838773
-0.0739404
-0.0647885
-0.0560739
-0.0483753
-0.0404897
-0.0345158
-0.0265468
-0.0233395
-0.0130586
-0.015705
0.00241735
-0.0143361
0.0253161
-0.320091
-0.301791
-0.286909
-0.271021
-0.254617
-0.238091
-0.221566
-0.20525
-0.18929
-0.173812
-0.158912
-0.144658
-0.131098
-0.118259
-0.106161
-0.0947867
-0.0841625
-0.0741935
-0.065012
-0.0562709
-0.0485472
-0.0406423
-0.0346444
-0.0266688
-0.0234279
-0.0131699
-0.0157422
0.00227759
-0.0142777
0.025053
-0.323686
-0.303612
-0.288429
-0.272279
-0.255664
-0.239007
-0.22239
-0.206007
-0.189992
-0.174466
-0.159519
-0.145218
-0.131613
-0.118728
-0.106585
-0.0951675
-0.0845024
-0.0744952
-0.0652783
-0.0565056
-0.0487518
-0.0408241
-0.0347975
-0.0268139
-0.0235331
-0.0133024
-0.0157862
0.00211118
-0.014208
0.0247402
-0.32779
-0.305685
-0.290149
-0.273701
-0.25685
-0.240048
-0.22333
-0.206873
-0.190799
-0.175218
-0.160219
-0.145866
-0.132208
-0.11927
-0.107075
-0.095608
-0.0848956
-0.0748442
-0.0655863
-0.0567771
-0.0489882
-0.0410341
-0.0349742
-0.0269817
-0.0236542
-0.0134555
-0.0158368
0.00191881
-0.0141273
0.0243796
-0.332357
-0.307987
-0.292043
-0.275268
-0.25816
-0.241202
-0.224377
-0.207842
-0.191704
-0.176065
-0.161008
-0.146597
-0.13288
-0.119884
-0.10763
-0.0961068
-0.0853408
-0.0752393
-0.0659348
-0.0570842
-0.0492556
-0.0412716
-0.0351738
-0.0271714
-0.0237908
-0.0136288
-0.0158936
0.00170124
-0.0140359
0.0239729
-0.337325
-0.310497
-0.294081
-0.276955
-0.259577
-0.242455
-0.22552
-0.208905
-0.192702
-0.177002
-0.161883
-0.147409
-0.133627
-0.120566
-0.108248
-0.0966618
-0.0858362
-0.0756789
-0.0663225
-0.0574257
-0.0495527
-0.0415356
-0.0353952
-0.0273821
-0.0239421
-0.0138214
-0.0159561
0.00145934
-0.013934
0.0235221
-0.342617
-0.313187
-0.29623
-0.278737
-0.261083
-0.243795
-0.22675
-0.210056
-0.193786
-0.178023
-0.16284
-0.148298
-0.134447
-0.121314
-0.108926
-0.0972713
-0.0863802
-0.0761615
-0.0667479
-0.0578004
-0.0498784
-0.0418251
-0.0356376
-0.0276131
-0.0241074
-0.0140326
-0.016024
0.00119407
-0.013822
0.0230293
-0.348124
-0.316032
-0.298454
-0.280584
-0.26266
-0.245207
-0.228057
-0.211286
-0.19495
-0.179123
-0.163873
-0.149261
-0.135335
-0.122126
-0.109662
-0.0979329
-0.0869707
-0.0766853
-0.0672094
-0.0582068
-0.0502313
-0.0421388
-0.0358998
-0.0278635
-0.0242858
-0.0142617
-0.0160969
0.000906449
-0.0137004
0.0224971
-0.353699
-0.319003
-0.300713
-0.282464
-0.264288
-0.246679
-0.22943
-0.212588
-0.196189
-0.180297
-0.164979
-0.150292
-0.136288
-0.122999
-0.110453
-0.0986447
-0.0876059
-0.0772488
-0.0677056
-0.0586436
-0.0506102
-0.0424756
-0.0361808
-0.0281322
-0.0244765
-0.0145077
-0.0161744
0.000597547
-0.0135695
0.0219276
-0.359131
-0.322067
-0.302967
-0.284341
-0.265946
-0.248196
-0.23086
-0.213954
-0.197496
-0.181542
-0.166154
-0.151391
-0.137305
-0.12393
-0.111298
-0.0994049
-0.0882843
-0.0778503
-0.068235
-0.0591095
-0.0510138
-0.0428345
-0.0364796
-0.0284184
-0.0246787
-0.0147699
-0.0162561
0.000268479
-0.0134297
0.0213236
-0.36411
-0.325159
-0.305161
-0.286171
-0.26761
-0.249743
-0.232335
-0.215375
-0.198863
-0.182849
-0.167392
-0.152551
-0.13838
-0.124916
-0.112194
-0.10021
-0.0890029
-0.0784874
-0.0687952
-0.0596023
-0.0514402
-0.0432137
-0.0367945
-0.0287208
-0.0248912
-0.0150472
-0.0163412
-7.96419e-05
-0.0132814
0.0206874
-0.368138
-0.328157
-0.307243
-0.287905
-0.269249
-0.251298
-0.233838
-0.216834
-0.200275
-0.184204
-0.168679
-0.153759
-0.139502
-0.125946
-0.113129
-0.101052
-0.089754
-0.0791533
-0.0693805
-0.0601172
-0.0518852
-0.0436099
-0.0371225
-0.029037
-0.0251121
-0.0153382
-0.0164288
-0.000445528
-0.0131249
0.0200218
-0.370573
-0.331027
-0.309245
-0.289538
-0.270857
-0.252861
-0.235365
-0.21833
-0.201729
-0.185604
-0.170012
-0.155013
-0.140666
-0.127015
-0.114101
-0.101927
-0.0905347
-0.0798452
-0.0699885
-0.060652
-0.0523471
-0.0440215
-0.037463
-0.029366
-0.0253413
-0.0156416
-0.01652
-0.000827175
-0.0129622
0.0193296
-0.370953
-0.33386
-0.311242
-0.291106
-0.272477
-0.254492
-0.236989
-0.219937
-0.203303
-0.187128
-0.171467
-0.156384
-0.141942
-0.128188
-0.115167
-0.102886
-0.0913894
-0.0806016
-0.0706518
-0.061234
-0.0528487
-0.0444663
-0.037831
-0.029718
-0.025589
-0.0159611
-0.0166219
-0.0012226
-0.0127996
0.0186139
-0.3672
-0.335315
-0.312737
-0.292368
-0.273978
-0.256137
-0.238701
-0.221679
-0.205045
-0.188838
-0.173119
-0.157956
-0.143415
-0.129549
-0.116408
-0.104005
-0.0923874
-0.0814839
-0.0714237
-0.0619081
-0.0534266
-0.0449739
-0.0382481
-0.0301099
-0.0258642
-0.0163055
-0.0167348
-0.00163682
-0.0126319
0.0178746
-0.348377
-0.331356
-0.312518
-0.292479
-0.274603
-0.257066
-0.239783
-0.22285
-0.206265
-0.190075
-0.174348
-0.159152
-0.14456
-0.130628
-0.117409
-0.104921
-0.0932143
-0.0822247
-0.0720753
-0.0624858
-0.053918
-0.0454189
-0.0385984
-0.0304688
-0.0260808
-0.0166489
-0.0167864
-0.00208815
-0.012394
0.0171032
-0.29624
-0.321929
-0.312294
-0.292613
-0.274918
-0.25741
-0.240018
-0.222949
-0.206238
-0.189944
-0.174141
-0.1589
-0.144287
-0.130354
-0.117149
-0.104689
-0.0930125
-0.0820648
-0.0719455
-0.0624112
-0.053855
-0.0454395
-0.0385795
-0.0306056
-0.0260563
-0.016954
-0.0166543
-0.00267602
-0.0119579
0.0161201
-0.276656
-0.308534
-0.304279
-0.286397
-0.270192
-0.253833
-0.237236
-0.220775
-0.204553
-0.18866
-0.173187
-0.158218
-0.143827
-0.130074
-0.117013
-0.104666
-0.0930734
-0.0821945
-0.0721154
-0.0626277
-0.0540713
-0.0457092
-0.0387922
-0.0309292
-0.0262077
-0.0173796
-0.0166448
-0.00333608
-0.0115754
0.0149629
-0.268733
-0.296593
-0.29451
-0.278361
-0.263655
-0.248595
-0.232999
-0.217344
-0.201796
-0.186469
-0.171473
-0.156905
-0.14285
-0.129375
-0.11654
-0.104377
-0.0929288
-0.0821673
-0.0721697
-0.0627593
-0.0542315
-0.0459383
-0.0389865
-0.031235
-0.0263654
-0.0177941
-0.0166609
-0.00398128
-0.0112334
0.013773
-0.262766
-0.285354
-0.284882
-0.270351
-0.256858
-0.242978
-0.228366
-0.213528
-0.198675
-0.183942
-0.169454
-0.155319
-0.141631
-0.128465
-0.115887
-0.103936
-0.0926582
-0.0820374
-0.0721427
-0.0628276
-0.0543447
-0.0461336
-0.039159
-0.0315288
-0.0265175
-0.0182138
-0.0166771
-0.00465171
-0.0108788
0.0125123
-0.256899
-0.274355
-0.275027
-0.262069
-0.249658
-0.236901
-0.223292
-0.209309
-0.195198
-0.181105
-0.16717
-0.15351
-0.140226
-0.127403
-0.115111
-0.103398
-0.0923127
-0.0818516
-0.0720762
-0.0628691
-0.0544432
-0.0463214
-0.0393325
-0.0318274
-0.026679
-0.0186475
-0.0167023
-0.00535034
-0.0105143
0.0111793
-0.250469
-0.263358
-0.26464
-0.253216
-0.241857
-0.230205
-0.217637
-0.204566
-0.191259
-0.177871
-0.164549
-0.151418
-0.138589
-0.126153
-0.114186
-0.102744
-0.0918796
-0.0816013
-0.0719655
-0.0628812
-0.0545264
-0.0465017
-0.0395088
-0.0321305
-0.0268533
-0.0190922
-0.0167424
-0.00606918
-0.0101507
0.00978467
-0.243018
-0.252103
-0.25361
-0.24369
-0.233399
-0.222844
-0.211352
-0.19925
-0.186808
-0.17419
-0.161543
-0.149002
-0.136681
-0.12468
-0.113081
-0.101947
-0.0913369
-0.0812685
-0.0717958
-0.0628521
-0.0545851
-0.0466668
-0.0396829
-0.0324328
-0.0270385
-0.0195429
-0.016799
-0.00680114
-0.00979517
0.00833995
-0.234251
-0.240372
-0.241869
-0.233427
-0.224251
-0.214797
-0.204411
-0.193329
-0.181813
-0.170027
-0.158119
-0.146227
-0.134471
-0.122956
-0.111771
-0.100987
-0.0906662
-0.0808377
-0.0715543
-0.0627712
-0.0546109
-0.0468098
-0.0398496
-0.0327297
-0.0272323
-0.0199953
-0.0168729
-0.00753961
-0.00945384
0.00685818
-0.224031
-0.228012
-0.229377
-0.222379
-0.214376
-0.206041
-0.19679
-0.186776
-0.176244
-0.165351
-0.154245
-0.143063
-0.13193
-0.120956
-0.110234
-0.0998425
-0.0898491
-0.0802933
-0.0712278
-0.0626277
-0.0545951
-0.0469237
-0.0400037
-0.033016
-0.0274322
-0.0204445
-0.0169645
-0.00827729
-0.0091333
0.00535512
-0.212343
-0.214933
-0.216136
-0.210538
-0.203764
-0.196571
-0.188478
-0.179576
-0.170078
-0.160136
-0.149892
-0.139481
-0.12903
-0.11865
-0.108442
-0.09849
-0.0888656
-0.0796181
-0.0708018
-0.0624096
-0.0545278
-0.0470002
-0.0401387
-0.033286
-0.0276346
-0.0208851
-0.0170738
-0.00900617
-0.00884017
0.00384937
-0.199268
-0.201113
-0.202196
-0.197941
-0.192436
-0.186405
-0.179488
-0.171729
-0.163308
-0.154368
-0.14504
-0.135458
-0.125745
-0.116016
-0.106374
-0.096908
-0.0876959
-0.0787944
-0.0702609
-0.0621037
-0.0543978
-0.0470302
-0.0402471
-0.0335331
-0.0278349
-0.0213115
-0.0171997
-0.0097178
-0.00858067
0.00236196
-0.18498
-0.186601
-0.187654
-0.184675
-0.180452
-0.175596
-0.169859
-0.163261
-0.155948
-0.148049
-0.139684
-0.13098
-0.122058
-0.113033
-0.104008
-0.0950764
-0.0863207
-0.0778047
-0.0695893
-0.0616964
-0.0541932
-0.0470036
-0.0403204
-0.0337503
-0.0280277
-0.0217175
-0.01734
-0.0104036
-0.00836013
0.00091582
-0.169731
-0.171515
-0.172655
-0.170871
-0.167912
-0.164225
-0.159659
-0.154224
-0.148033
-0.1412
-0.133834
-0.12605
-0.117965
-0.10969
-0.10133
-0.0929792
-0.0847236
-0.0766331
-0.0687721
-0.0611741
-0.0539018
-0.0469102
-0.0403495
-0.0339299
-0.0282064
-0.0220969
-0.0174915
-0.0110549
-0.00818266
-0.000464999
-0.153838
-0.156037
-0.157383
-0.156701
-0.154954
-0.152408
-0.148984
-0.144695
-0.139624
-0.133866
-0.127517
-0.120683
-0.11347
-0.105987
-0.0983335
-0.0906065
-0.0828927
-0.0752666
-0.0677961
-0.0605244
-0.0535121
-0.0467398
-0.040325
-0.0340642
-0.0283641
-0.0224434
-0.0176499
-0.0116637
-0.00805076
-0.00175637
-0.137649
-0.140394
-0.142048
-0.142363
-0.141745
-0.140288
-0.13796
-0.134778
-0.130804
-0.126112
-0.120784
-0.114914
-0.108597
-0.101935
-0.0950232
-0.0879566
-0.080822
-0.0736968
-0.0666515
-0.0597372
-0.0530138
-0.0464829
-0.040238
-0.0341456
-0.0284935
-0.0227509
-0.0178102
-0.0122223
-0.00796495
-0.00293541
-0.121517
-0.12484
-0.126873
-0.128071
-0.128472
-0.128028
-0.126729
-0.124598
-0.121678
-0.118025
-0.113705
-0.108796
-0.103384
-0.0975603
-0.0914149
-0.0850376
-0.0785137
-0.0719215
-0.0653331
-0.0588056
-0.052399
-0.0461318
-0.0400804
-0.0341673
-0.0285875
-0.0230139
-0.0179666
-0.0127243
-0.00792346
-0.00398201
-0.105768
-0.109627
-0.112073
-0.114035
-0.11533
-0.115803
-0.11545
-0.114297
-0.112371
-0.109709
-0.106364
-0.102399
-0.0978858
-0.0929046
-0.0875379
-0.0818688
-0.0759792
-0.0699461
-0.0638417
-0.0577273
-0.0516633
-0.0456812
-0.0398459
-0.0341238
-0.0286395
-0.0232278
-0.0181131
-0.0131644
-0.00792228
-0.00488015
-0.0906824
-0.0949878
-0.0978486
-0.100453
-0.102507
-0.103786
-0.104283
-0.104021
-0.103013
-0.101282
-0.0988639
-0.0958073
-0.0921712
-0.0880228
-0.0834344
-0.0784815
-0.0732402
-0.0677845
-0.0621854
-0.0565057
-0.0508067
-0.0451292
-0.0395308
-0.0340114
-0.0286443
-0.0233891
-0.0182439
-0.013539
-0.00795566
-0.00561896
-0.0764756
-0.0811193
-0.0843654
-0.0874939
-0.0901729
-0.0921425
-0.0933841
-0.0939163
-0.0937416
-0.0928669
-0.091314
-0.0891174
-0.0863222
-0.0829822
-0.0791588
-0.0749181
-0.0703287
-0.06546
-0.0603797
-0.055151
-0.0498345
-0.0444781
-0.0391346
-0.0338289
-0.0285986
-0.0234957
-0.0183536
-0.0138462
-0.00801645
-0.00619377
-0.0633011
-0.0681722
-0.0717551
-0.0752977
-0.0784747
-0.0810182
-0.0828978
-0.0841239
-0.084689
-0.0845877
-0.0838282
-0.0824313
-0.0804288
-0.0778602
-0.074776
-0.0712314
-0.0672867
-0.0630046
-0.0584485
-0.0536798
-0.0487578
-0.0437347
-0.0386605
-0.0335778
-0.028501
-0.0235476
-0.0184381
-0.0140862
-0.00809659
-0.00660679
-0.0512527
-0.0562513
-0.0601122
-0.0639699
-0.0675308
-0.070538
-0.0729512
-0.0747707
-0.0759807
-0.0765651
-0.0765201
-0.0758538
-0.0745844
-0.0727408
-0.0703586
-0.067483
-0.0641648
-0.0604591
-0.0564235
-0.0521161
-0.047594
-0.0429112
-0.0381161
-0.0332632
-0.0283531
-0.0235465
-0.0184947
-0.0142612
-0.00818779
-0.00686716
-0.0403763
-0.0454203
-0.0494987
-0.0535862
-0.0574322
-0.0608035
-0.0636524
-0.0659693
-0.0677306
-0.0689121
-0.0694995
-0.0694895
-0.0688883
-0.0677118
-0.0659849
-0.0637409
-0.0610209
-0.0578715
-0.0543435
-0.0504904
-0.0463661
-0.0420247
-0.0375132
-0.0328934
-0.0281593
-0.0234966
-0.0185223
-0.0143756
-0.00828224
-0.00699038
-0.0306839
-0.0357113
-0.0399505
-0.0441974
-0.0482467
-0.0518956
-0.0550918
-0.0578168
-0.0600409
-0.0617329
-0.0628701
-0.0634389
-0.0634351
-0.062863
-0.0617367
-0.0600783
-0.0579189
-0.0552962
-0.0522538
-0.0488394
-0.0451031
-0.0410974
-0.036868
-0.0324803
-0.0279266
-0.0234042
-0.0185218
-0.0144358
-0.00837328
-0.00699723
-0.0221666
-0.0271353
-0.0314865
-0.035837
-0.040024
-0.0438778
-0.0473444
-0.0503974
-0.0530023
-0.0551227
-0.0567289
-0.0577991
-0.0583194
-0.0582845
-0.0576978
-0.0565718
-0.0549271
-0.0527929
-0.0502051
-0.0472053
-0.043839
-0.0401561
-0.0362006
-0.0320392
-0.0276654
-0.0232777
-0.0184962
-0.01445
-0.00845591
-0.00691215
-0.0148079
-0.0196929