/*--------------------------------*- C++ -*----------------------------------*\
  =========                 |
  \\      /  F ield         | OpenFOAM: The Open Source CFD Toolbox
   \\    /   O peration     | Website:  https://openfoam.org
    \\  /    A nd           | Version:  7
     \\/     M anipulation  |
\*---------------------------------------------------------------------------*/
FoamFile
{
    version     2.0;
    format      ascii;
    class       surfaceScalarField;
    location    "10";
    object      phi;
}
// * * * * * * * * * * * * * * * * * * * * * * * * * * * * * * * * * * * * * //

dimensions      [0 3 -1 0 0 0 0];

internalField   nonuniform List<scalar> 
16735
(
-1.83702e-06
1.83702e-06
-1.33894e-12
-5.46956e-06
3.63255e-06
-6.34942e-12
-9.41502e-06
3.94548e-06
-1.37988e-11
-1.22026e-05
2.78763e-06
-2.32573e-11
-1.24019e-05
1.99341e-07
-3.4469e-11
-8.67396e-06
-3.72793e-06
-4.69052e-11
1.58155e-07
-8.83205e-06
-6.00976e-11
1.49996e-05
-1.48414e-05
-7.45061e-11
3.64078e-05
-2.14081e-05
-9.05084e-11
-2.79841e-05
-1.07364e-10
6.43919e-05
-1.78091e-06
3.61793e-06
-5.24783e-06
7.09947e-06
-8.90889e-06
7.60654e-06
-1.12809e-05
5.15966e-06
-1.09168e-05
-1.64809e-07
-6.45526e-06
-8.18945e-06
3.30809e-06
-1.85954e-05
1.9312e-05
-3.08453e-05
4.21405e-05
-4.42366e-05
-5.7662e-05
7.18185e-05
-1.66909e-06
5.28702e-06
-4.8058e-06
1.02362e-05
-7.8999e-06
1.07006e-05
-9.44378e-06
6.70354e-06
-7.95726e-06
-1.65133e-06
-2.03488e-06
-1.41118e-05
9.58399e-06
-3.02143e-05
2.79018e-05
-4.9163e-05
5.35609e-05
-6.98958e-05
-9.07178e-05
8.66167e-05
-1.50229e-06
6.78931e-06
-4.14615e-06
1.288e-05
-6.39429e-06
1.29488e-05
-6.70329e-06
7.01254e-06
-3.54442e-06
-4.81019e-06
4.55316e-06
-2.22094e-05
1.89345e-05
-4.45956e-05
4.06989e-05
-7.09274e-05
7.05791e-05
-9.97759e-05
-0.000128817
0.000108678
-1.28151e-06
8.07082e-06
-3.27259e-06
1.48711e-05
-4.40084e-06
1.4077e-05
-3.07661e-06
5.6883e-06
2.29157e-06
-1.01784e-05
1.32601e-05
-3.31779e-05
3.12859e-05
-6.26215e-05
5.76001e-05
-9.72416e-05
9.30611e-05
-0.000135237
-0.000173595
0.00013784
-1.0079e-06
9.07873e-06
-2.18953e-06
1.60527e-05
-1.9301e-06
1.38176e-05
1.41522e-06
2.34298e-06
9.51308e-06
-1.82762e-05
2.40238e-05
-4.76887e-05
4.65431e-05
-8.51408e-05
7.84703e-05
-0.000129169
0.00012083
-0.000177597
-0.000226653
0.000173888
-6.82649e-07
9.76138e-06
-9.01532e-07
1.62716e-05
1.00642e-06
1.19097e-05
6.74864e-06
-3.39925e-06
1.80773e-05
-2.96049e-05
3.67721e-05
-6.63835e-05
6.45929e-05
-0.000112961
0.000103145
-0.000167721
0.000153669
-0.000228121
-0.000289543
0.000216559
-3.06915e-07
1.00683e-05
5.86752e-07
1.5378e-05
4.39706e-06
8.09934e-06
1.28994e-05
-1.19016e-05
2.79384e-05
-4.46439e-05
5.14259e-05
-8.98709e-05
8.53077e-05
-0.000146843
0.000131436
-0.000213849
0.000191321
-0.000288006
-0.00036376
0.000265538
1.19596e-07
9.94869e-06
2.27171e-06
1.32258e-05
8.23123e-06
2.13982e-06
1.98438e-05
-2.35141e-05
3.90507e-05
-6.38509e-05
6.79031e-05
-0.000118723
0.000108551
-0.000187491
0.00016313
-0.000268429
0.000233491
-0.000358367
-0.00045073
0.000320461
5.94542e-07
9.35415e-06
4.15028e-06
9.6701e-06
1.24995e-05
-6.20941e-06
2.75602e-05
-3.85747e-05
5.13708e-05
-8.76615e-05
8.61234e-05
-0.000153476
0.000134182
-0.00023555
0.000198003
-0.000332249
0.000279852
-0.000440216
-0.000551795
0.000380917
1.11943e-06
8.23472e-06
6.22033e-06
4.5692e-06
1.71941e-05
-1.71832e-05
3.60297e-05
-5.74104e-05
6.48599e-05
-0.000116492
0.000106013
-0.000194629
0.000162066
-0.000291603
0.000235822
-0.000406005
0.000330048
-0.000534442
-0.000668191
0.000446443
1.6941e-06
6.54062e-06
8.48021e-06
-2.2169e-06
2.23081e-05
-3.10111e-05
4.52361e-05
-8.03384e-05
7.94852e-05
-0.000150741
0.000127507
-0.000242651
0.000192081
-0.000356176
0.000276359
-0.000490284
0.000383702
-0.000641784
-0.000801016
0.000516527
2.31884e-06
4.22178e-06
1.09279e-05
-1.0826e-05
2.78342e-05
-4.79173e-05
5.51636e-05
-0.000107668
9.52185e-05
-0.000190796
0.000150557
-0.00029799
0.000224125
-0.000429745
0.000319412
-0.00058557
0.000440433
-0.000762805
-0.000951188
0.000590605
2.99352e-06
1.22825e-06
1.35597e-05
-2.13922e-05
3.37617e-05
-6.81193e-05
6.5793e-05
-0.000139699
0.000112033
-0.000237035
0.000175124
-0.000361081
0.000258133
-0.000512754
0.000364821
-0.000692258
0.000499881
-0.000897865
-0.00111938
0.000668069
3.717e-06
-2.48875e-06
1.63681e-05
-3.40433e-05
4.00726e-05
-9.18238e-05
7.70955e-05
-0.000176722
0.000129893
-0.000289833
0.000201177
-0.000432365
0.000294075
-0.000605651
0.000412508
-0.000810691
0.000561765
-0.00104712
-0.0013059
0.000748284
4.48638e-06
-6.97513e-06
1.93395e-05
-4.88965e-05
4.67363e-05
-0.000119221
8.90225e-05
-0.000219008
0.000148743
-0.000349554
0.000228676
-0.000512298
0.000331956
-0.000708932
0.000462511
-0.000941246
0.000625964
-0.00121057
-0.00151056
0.000830627
5.2962e-06
-1.22713e-05
2.24514e-05
-6.60517e-05
5.37034e-05
-0.000150473
0.000101494
-0.000266799
0.000168482
-0.000416542
0.000257539
-0.000601355
0.00037179
-0.000823182
0.000514997
-0.00108445
0.000692633
-0.00138821
-0.00173256
0.000914636
6.13777e-06
-1.84091e-05
2.56704e-05
-8.55843e-05
6.09002e-05
-0.000185702
0.000114384
-0.000320282
0.000188938
-0.000491096
0.000287596
-0.000700013
0.000413548
-0.000949134
0.000570293
-0.0012412
0.0007623
-0.00158022
-0.00197073
0.00100047
6.9989e-06
-2.5408e-05
2.89507e-05
-0.000107536
6.82244e-05
-0.000224976
0.00012751
-0.000379568
0.000209832
-0.000573418
0.000318516
-0.000808698
0.000457082
-0.0010877
0.00062905
-0.00141317
0.000836645
-0.00178781
-0.00222366
0.00108957
7.86422e-06
-3.32722e-05
3.22357e-05
-0.000131908
7.55457e-05
-0.000268286
0.000140624
-0.000444646
0.000230743
-0.000663537
0.000349666
-0.000927621
0.000501722
-0.00123976
0.000691837
-0.00160328
0.000922148
-0.00201812
-0.00248412
0.00118261
8.71671e-06
-4.19889e-05
3.54622e-05
-0.000158653
8.27152e-05
-0.000315539
0.000153426
-0.000515357
0.000251098
-0.000761209
0.00037996
-0.00105648
0.000545357
-0.00140515
0.000754869
-0.00181279
0.00102442
-0.00228768
-0.00286974
0.00141005
9.53857e-06
-5.15275e-05
3.85649e-05
-0.00018768
8.95795e-05
-0.000366554
0.000165602
-0.000591379
0.000270267
-0.000865874
0.000408043
-0.00119426
0.000584689
-0.0015818
0.000808274
-0.00203638
0.00109222
-0.00257163
-0.00322501
0.00144749
1.03152e-05
-6.18426e-05
4.14893e-05
-0.000218854
9.60095e-05
-0.000421074
0.000176893
-0.000672262
0.000287762
-0.000976744
0.000433009
-0.00133951
0.00061805
-0.00176684
0.000849551
-0.00226788
0.00113529
-0.00285736
-0.00356404
0.00147432
1.10356e-05
-7.28782e-05
4.41945e-05
-0.000252013
0.000101912
-0.000478791
0.000187128
-0.000757478
0.000303315
-0.00109293
0.000454531
-0.00149072
0.000645415
-0.00195773
0.000880774
-0.00250324
0.00116409
-0.00314068
-0.00389034
0.0014904
1.16937e-05
-8.45719e-05
4.66556e-05
-0.000286975
0.000107234
-0.00053937
0.000196224
-0.000846468
0.000316839
-0.00121355
0.000472652
-0.00164653
0.000667367
-0.00215244
0.000904087
-0.00273996
0.00118353
-0.00342012
-0.00420609
0.00149928
1.22872e-05
-9.68591e-05
4.88626e-05
-0.00032355
0.000111955
-0.000602462
0.000204162
-0.000938675
0.000328368
-0.00133775
0.000487585
-0.00180575
0.000684587
-0.00234944
0.000921064
-0.00297643
0.00119601
-0.00369507
-0.00451287
0.00150279
1.28172e-05
-0.000109676
5.08158e-05
-0.000361549
0.000116078
-0.000667725
0.000210967
-0.00103356
0.000337994
-0.00146478
0.000499594
-0.00196735
0.000697681
-0.00254753
0.000932829
-0.00321158
0.00120296
-0.0039652
-0.0048115
0.00150159
1.32863e-05
-0.000122963
5.25219e-05
-0.000400784
0.000119621
-0.000734823
0.000216683
-0.00113063
0.000345828
-0.00159392
0.000508924
-0.00213045
0.000707124
-0.00274573
0.000940119
-0.00344458
0.00120514
-0.00423022
-0.00510226
0.0014959
1.36977e-05
-0.00013666
5.39896e-05
-0.000441076
0.000122601
-0.000803435
0.000221353
-0.00122938
0.000351965
-0.00172454
0.000515765
-0.00229425
0.000713235
-0.0029432
0.000943358
-0.0036747
0.00120288
-0.00448974
-0.00538504
0.00148566
1.40541e-05
-0.000150714
5.52261e-05
-0.000482248
0.000125036
-0.000873245
0.000225011
-0.00132935
0.000356474
-0.001856
0.000520241
-0.00245801
0.000716194
-0.00313915
0.000942735
-0.00390124
0.00119623
-0.00474324
-0.00565945
0.00147064
1.43571e-05
-0.000165072
5.62355e-05
-0.000524127
0.000126934
-0.000943944
0.000227676
-0.00143009
0.000359389
-0.00198771
0.000522406
-0.00262103
0.000716069
-0.00333282
0.000938278
-0.00412345
0.00118509
-0.00499005
-0.00592486
0.0014505
1.46068e-05
-0.000179678
5.70171e-05
-0.000566537
0.000128293
-0.00101522
0.000229346
-0.00153115
0.000360711
-0.00211908
0.000522259
-0.00278258
0.000712838
-0.0035234
0.000929907
-0.00434052
0.00116925
-0.0052294
-0.00618047
0.00142487
1.48017e-05
-0.00019448
5.75656e-05
-0.000609301
0.000129102
-0.00108676
0.000230001
-0.00163205
0.000360411
-0.00224949
0.000519756
-0.00294192
0.000706427
-0.00371007
0.000917482
-0.00455157
0.00114847
-0.00546038
-0.00642538
0.00139338
1.49389e-05
-0.000209419
5.78709e-05
-0.000652233
0.00012934
-0.00115822
0.00022961
-0.00173232
0.000358439
-0.00237832
0.000514824
-0.00309831
0.000696724
-0.00389197
0.000900836
-0.00475569
0.00112249
-0.00568204
-0.00665858
0.00135569
1.50143e-05
-0.000224433
5.79199e-05
-0.000695138
0.000128981
-0.00122929
0.000228128
-0.00183146
0.000354732
-0.00250492
0.000507374
-0.00325095
0.000683608
-0.0040682
0.000879803
-0.00495188
0.00109111
-0.00589334
-0.00687902
0.00131154
1.5023e-05
-0.000239456
5.76968e-05
-0.000737812
0.000127995
-0.00129958
0.000225505
-0.00192897
0.000349219
-0.00262863
0.000497312
-0.00339904
0.000666962
-0.00423785
0.000854238
-0.00513916
0.00105414
-0.00609325
-0.00708564
0.00126076
1.49597e-05
-0.000254416
5.71846e-05
-0.000780037
0.000126347
-0.00136875
0.000221693
-0.00202432
0.000341832
-0.00274877
0.000484555
-0.00354177
0.000646686
-0.00439998
0.000824036
-0.00531651
0.0010115
-0.00628071
-0.0072774
0.00120326
1.48189e-05
-0.000269235
5.63663e-05
-0.000821585
0.000124008
-0.00143639
0.000216643
-0.00211695
0.000332511
-0.00286464
0.000469032
-0.00367829
0.000622709
-0.00455366
0.000789133
-0.00548293
0.000963139
-0.00645472
-0.00745331
0.00113905
1.45953e-05
-0.00028383
5.5226e-05
-0.000862215
0.000120947
-0.00150211
0.000210315
-0.00220632
0.000321207
-0.00297553
0.000450697
-0.00380778
0.000594997
-0.00469796
0.000749523
-0.00563746
0.000909098
-0.0066143
-0.00761246
0.00106824
1.42842e-05
-0.000298114
5.37499e-05
-0.000901681
0.000117142
-0.0015655
0.000202679
-0.00229186
0.00030789
-0.00308074
0.000429528
-0.00392942
0.000563553
-0.00483198
0.000705252
-0.00577916
0.000849487
-0.00675853
-0.00775399
0.000991018
1.38835e-05
-0.000311998
5.19308e-05
-0.000939728
0.000112581
-0.00162615
0.000193724
-0.002373
0.000292559
-0.00317958
0.000405546
-0.0040424
0.000528434
-0.00495487
0.000656433
-0.00590715
0.000784497
-0.00688659
-0.00787717
0.000907677
1.33864e-05
-0.000325384
4.97538e-05
-0.000976096
0.000107244
-0.00168364
0.000183431
-0.00244919
0.000275208
-0.00327136
0.000378774
-0.00414597
0.00048971
-0.00506581
0.000603201
-0.00602065
0.000714346
-0.00699774
-0.00798136
0.000818539
1.27928e-05
-0.000338177
4.72192e-05
-0.00101052
0.000101136
-0.00173756
0.00017182
-0.00251987
0.000255882
-0.00335542
0.000349296
-0.00423938
0.000447523
-0.00516404
0.000545772
-0.00611889
0.000639347
-0.00709131
-0.00806604
0.000724024
1.21019e-05
-0.000350279
4.43284e-05
-0.00104275
9.42676e-05
-0.0017875
0.000158919
-0.00258452
0.000234642
-0.00343114
0.000317223
-0.00432196
0.000402047
-0.00524886
0.000484402
-0.00620125
0.000559847
-0.00716676
-0.00813078
0.00062459
1.13145e-05
-0.000361594
4.10874e-05
-0.00107252
8.6658e-05
-0.00183307
0.000144774
-0.00264264
0.000211575
-0.00349794
0.000282697
-0.00439309
0.000353496
-0.00531966
0.000419389
-0.00626714
0.000476238
-0.00722361
-0.00817528
0.000520731
1.04325e-05
-0.000372026
3.75073e-05
-0.0010996
7.83381e-05
-0.0018739
0.000129449
-0.00269375
0.000186792
-0.00355529
0.000245892
-0.00445219
0.00030212
-0.00537589
0.000351068
-0.00631609
0.000388947
-0.00726149
-0.0081993
0.00041297
9.45956e-06
-0.000381486
3.36043e-05
-0.00112374
6.9349e-05
-0.00190964
0.000113024
-0.00273742
0.000160428
-0.00360269
0.000207015
-0.00449877
0.000248206
-0.00541708
0.000279809
-0.00634769
0.00029843
-0.00728011
-0.00820271
0.000301844
8.40055e-06
-0.000389886
2.93997e-05
-0.00114474
5.97417e-05
-0.00193999
9.55962e-05
-0.00277328
0.000132644
-0.00363974
0.000166301
-0.00453243
0.000192074
-0.00544285
0.000206016
-0.00636163
0.000205157
-0.00727925
-0.00818545
0.000187894
7.2619e-06
-0.000397148
2.49194e-05
-0.0011624
4.95771e-05
-0.00196464
7.72778e-05
-0.00280098
0.000103619
-0.00366608
0.000124013
-0.00455282
0.000134076
-0.00545291
0.000130135
-0.00635769
0.000109621
-0.00725874
-0.00814737
7.15443e-05
6.05129e-06
-0.000403199
2.01935e-05
-0.00117654
3.89243e-05
-0.00198338
5.8195e-05
-0.00282025
7.3555e-05
-0.00368144
8.04377e-05
-0.00455971
7.45872e-05
-0.00544706
5.26442e-05
-0.00633575
1.28177e-05
-0.00721891
-0.00808807
-4.64894e-05
4.77754e-06
-0.000407977
1.52558e-05
-0.00118702
2.78597e-05
-0.00199598
3.84854e-05
-0.00283088
4.26682e-05
-0.00368562
3.5886e-05
-0.00455292
1.40144e-05
-0.00542519
-2.60691e-05
-0.00629567
-8.59463e-05
-0.00715903
-0.00800892
-0.000165091
3.45032e-06
-0.000411427
1.01428e-05
-0.00119371
1.64646e-05
-0.0020023
1.82951e-05
-0.00283271
1.11893e-05
-0.00367852
-9.31006e-06
-0.00453243
-4.72055e-05
-0.00538729
-0.00010539
-0.00623748
-0.000184962
-0.00707946
-0.00790927
-0.000284611
2.08e-06
-0.000413507
4.89245e-06
-0.00119652
4.82337e-06
-0.00200223
-2.22508e-06
-0.00282566
-2.06437e-05
-0.0036601
-5.48062e-05
-0.00449826
-0.000108608
-0.00533349
-0.000184773
-0.00616132
-0.000284008
-0.00698022
-0.00778913
-0.000404149
6.78373e-07
-0.000414186
-4.58504e-07
-0.00119539
-6.98005e-06
-0.00199571
-2.29257e-05
-0.00280971
-5.25915e-05
-0.00363043
-0.000100249
-0.00445061
-0.000169711
-0.00526403
-0.000263628
-0.0060674
-0.000382469
-0.00686138
-0.00764845
-0.000523156
-7.53609e-07
-0.000413432
-5.86963e-06
-0.00119027
-1.88642e-05
-0.00198272
-4.36616e-05
-0.00278491
-8.44226e-05
-0.00358967
-0.00014529
-0.00438974
-0.000230017
-0.0051793
-0.000341306
-0.00595611
-0.000479653
-0.00672304
-0.00748702
-0.000641079
-2.1917e-06
-0.00041124
-1.13101e-05
-0.00118115
-3.07549e-05
-0.00196327
-6.43008e-05
-0.00275137
-0.000115924
-0.00353805
-0.000189598
-0.00431606
-0.000289025
-0.00507988
-0.000417099
-0.00582804
-0.00057476
-0.00656537
-0.00730441
-0.000757371
-3.63744e-06
-0.000407603
-1.67484e-05
-0.00116804
-4.25866e-05
-0.00193743
-8.4729e-05
-0.00270923
-0.000146913
-0.00347586
-0.000232884
-0.00423009
-0.000346257
-0.0049665
-0.000490249
-0.00568405
-0.00066684
-0.00638878
-0.00709979
-0.000871462
-5.08186e-06
-0.000402521
-2.21589e-05
-0.00115096
-5.43052e-05
-0.00190529
-0.000104855
-0.00265868
-0.000177248
-0.00340347
-0.000274919
-0.00413242
-0.000401298
-0.00484012
-0.000559954
-0.00552539
-0.000754663
-0.00619407
-0.00687208
-0.000982375
-6.51896e-06
-0.000396002
-2.75201e-05
-0.00112996
-6.5868e-05
-0.00186694
-0.000124615
-0.00259993
-0.000206844
-0.00332124
-0.000315578
-0.00402369
-0.000453865
-0.00470184
-0.000625375
-0.00535388
-0.000836093
-0.00598336
-0.00661915
-0.00108902
-7.94375e-06
-0.000388058
-3.28144e-05
-0.00110509
-7.72419e-05
-0.00182251
-0.000143967
-0.0025332
-0.000235673
-0.00322954
-0.000354877
-0.00390448
-0.000503988
-0.00455272
-0.000685985
-0.00517189
-0.000907844
-0.0057615
-0.00633378
-0.00119321
-9.34913e-06
-0.000378709
-3.80207e-05
-0.00107642
-8.83923e-05
-0.00177214
-0.000162875
-0.00245872
-0.000263741
-0.00312867
-0.000392979
-0.00377525
-0.000552262
-0.00439344
-0.000743047
-0.0049811
-0.000965172
-0.00553937
-0.00607687
-0.00122208
-1.07348e-05
-0.000367974
-4.31311e-05
-0.00104402
-9.93013e-05
-0.00171597
-0.000181324
-0.0023767
-0.000291073
-0.00301892
-0.000430078
-0.00363624
-0.000599473
-0.00422405
-0.000800063
-0.00478051
-0.00103215
-0.00530728
-0.00580829
-0.00130073
-1.20925e-05
-0.000355882
-4.81208e-05
-0.001008
-0.000109924
-0.00165417
-0.00019925
-0.00228737
-0.000317594
-0.00290058
-0.000466096
-0.00348774
-0.000645512
-0.00404463
-0.000856384
-0.00456964
-0.00109934
-0.00506433
-0.00553066
-0.00137697
-1.34153e-05
-0.000342467
-5.2967e-05
-0.000968444
-0.000120215
-0.00158692
-0.000216577
-0.00219101
-0.000343188
-0.00277397
-0.00050082
-0.00333011
-0.0006899
-0.00385555
-0.000910669
-0.00434887
-0.00116348
-0.00481152
-0.0052448
-0.00144934
-1.46962e-05
-0.00032777
-5.7645e-05
-0.000925495
-0.000130124
-0.00151444
-0.000233222
-0.00208791
-0.000367718
-0.00263947
-0.000534029
-0.0031638
-0.000732236
-0.00365734
-0.000962222
-0.00411888
-0.00122386
-0.00454988
-0.00495161
-0.00151705
-1.59274e-05
-0.000311843
-6.21298e-05
-0.000879293
-0.000139601
-0.00143697
-0.000249102
-0.00197841
-0.00039106
-0.00249751
-0.000565535
-0.00298932
-0.000772253
-0.00345063
-0.00101071
-0.00388042
-0.00128029
-0.00428031
-0.00465182
-0.00158008
-1.7102e-05
-0.000294741
-6.63978e-05
-0.000829997
-0.000148599
-0.00135477
-0.000264141
-0.00186287
-0.000413105
-0.00234855
-0.000595195
-0.00280723
-0.00080978
-0.00323604
-0.00105598
-0.00363423
-0.00133272
-0.00400356
-0.00434598
-0.00163856
-1.82132e-05
-0.000276528
-7.04274e-05
-0.000777783
-0.000157075
-0.00126812
-0.000278275
-0.00174167
-0.000433766
-0.00219306
-0.000622906
-0.00261809
-0.000844717
-0.00301423
-0.00109796
-0.00338098
-0.00138121
-0.00372031
-0.00403454
-0.00169266
-1.92554e-05
-0.000257272
-7.41997e-05
-0.000722838
-0.000164995
-0.00117732
-0.000291451
-0.00161522
-0.000452977
-0.00203153
-0.0006486
-0.00242247
-0.000877012
-0.00278582
-0.00113666
-0.00312134
-0.00142583
-0.00343115
-0.00371786
-0.0017425
-2.02235e-05
-0.000237049
-7.76989e-05
-0.000665363
-0.000172328
-0.00108269
-0.000303625
-0.00148392
-0.000470688
-0.00186447
-0.000672229
-0.00222093
-0.00090664
-0.00255141
-0.00117209
-0.00285588
-0.00146665
-0.00313659
-0.00339632
-0.00178819
-2.11136e-05
-0.000215935
-8.09115e-05
-0.000605565
-0.00017905
-0.000984555
-0.000314766
-0.0013482
-0.000486863
-0.00169237
-0.000693764
-0.00201403
-0.000933591
-0.00231158
-0.00120429
-0.00258519
-0.00150374
-0.00283713
-0.00307026
-0.0018298
-2.19221e-05
-0.000194013
-8.3827e-05
-0.00054366
-0.000185142
-0.00088324
-0.000324846
-0.0012085
-0.000501474
-0.00151574
-0.000713185
-0.00180232
-0.000957864
-0.0020669
-0.00123326
-0.0023098
-0.00153714
-0.00253325
-0.00274007
-0.00186734
-2.26465e-05
-0.000171367
-8.64364e-05
-0.00047987
-0.000190588
-0.000779088
-0.000333846
-0.00106524
-0.000514501
-0.00133509
-0.000730478
-0.00158634
-0.000979456
-0.00181792
-0.00125902
-0.00203023
-0.00156686
-0.0022254
-0.00240612
-0.00190082
-2.32845e-05
-0.000148082
-8.87328e-05
-0.000414422
-0.000195377
-0.000672444
-0.00034175
-0.000918868
-0.000525929
-0.00115091
-0.000745634
-0.00136663
-0.000998367
-0.00156519
-0.00128158
-0.00174701
-0.00159292
-0.00191407
-0.00206881
-0.00193022
-2.38343e-05
-0.000124248
-9.07104e-05
-0.000347546
-0.000199497
-0.000563657
-0.000348545
-0.00076982
-0.000535745
-0.000963708
-0.000758643
-0.00114374
-0.00101459
-0.00130924
-0.00130095
-0.00146066
-0.00161529
-0.00159973
-0.00172859
-0.00195552
-2.42945e-05
-9.99533e-05
-9.23648e-05
-0.000279476
-0.000202942
-0.00045308
-0.000354222
-0.000618539
-0.00054394
-0.00077399
-0.000769497
-0.000918181
-0.00102813
-0.00105061
-0.0013171
-0.00117168
-0.00163398
-0.00128285
-0.00138589
-0.00197668
-2.4664e-05
-7.52893e-05
-9.36923e-05
-0.000210448
-0.000205704
-0.000341069
-0.000358773
-0.000465471
-0.000550506
-0.000582256
-0.00077819
-0.000690497
-0.00103896
-0.000789836
-0.00133004
-0.000880607
-0.00164896
-0.000963933
-0.00104119
-0.00199366
-2.49418e-05
-5.03475e-05
-9.46902e-05
-0.000140699
-0.00020778
-0.000227979
-0.000362191
-0.00031106
-0.000555436
-0.000389011
-0.000784715
-0.000461218
-0.0010471
-0.000527452
-0.00133976
-0.000587951
-0.00166021
-0.00064348
-0.000694979
-0.00200642
-2.51273e-05
-2.52202e-05
-9.53566e-05
-7.04699e-05
-0.000209166
-0.000114169
-0.000364472
-0.000155754
-0.000558725
-0.000194758
-0.000789068
-0.000230875
-0.00105253
-0.000263994
-0.00134624
-0.00029424
-0.00166772
-0.000321998
-0.000347745
-0.00201495
-2.52202e-05
-3.81193e-12
-9.569e-05
-9.93843e-12
-0.000209859
-1.46213e-11
-0.000365613
-1.82508e-11
-0.000560371
-2.13298e-11
-0.000791246
-2.42154e-11
-0.00105524
-2.70354e-11
-0.00134948
-2.96926e-11
-0.00167148
-3.20162e-11
-3.39655e-11
-0.00201922
-2.52202e-05
2.52202e-05
-9.569e-05
7.04698e-05
-0.000209859
0.000114169
-0.000365613
0.000155754
-0.000560371
0.000194758
-0.000791246
0.000230875
-0.00105524
0.000263994
-0.00134948
0.000294239
-0.00167148
0.000321998
0.000347745
-0.00201922
-2.51273e-05
5.03475e-05
-9.53566e-05
0.000140699
-0.000209166
0.000227979
-0.000364472
0.00031106
-0.000558725
0.000389011
-0.000789068
0.000461218
-0.00105253
0.000527452
-0.00134624
0.000587951
-0.00166772
0.00064348
0.000694979
-0.00201495
-2.49418e-05
7.52893e-05
-9.46902e-05
0.000210448
-0.00020778
0.000341069
-0.000362191
0.000465471
-0.000555436
0.000582256
-0.000784715
0.000690497
-0.0010471
0.000789836
-0.00133976
0.000880607
-0.00166021
0.000963933
0.00104119
-0.00200642
-2.4664e-05
9.99533e-05
-9.36923e-05
0.000279476
-0.000205704
0.00045308
-0.000358773
0.000618539
-0.000550506
0.00077399
-0.00077819
0.000918181
-0.00103896
0.00105061
-0.00133004
0.00117168
-0.00164896
0.00128285
0.00138589
-0.00199366
-2.42945e-05
0.000124248
-9.23648e-05
0.000347546
-0.000202942
0.000563657
-0.000354222
0.00076982
-0.00054394
0.000963708
-0.000769497
0.00114374
-0.00102813
0.00130924
-0.0013171
0.00146066
-0.00163398
0.00159973
0.00172859
-0.00197668
-2.38343e-05
0.000148082
-9.07104e-05
0.000414422
-0.000199497
0.000672444
-0.000348545
0.000918868
-0.000535745
0.00115091
-0.000758643
0.00136663
-0.00101459
0.00156519
-0.00130095
0.00174701
-0.00161529
0.00191407
0.00206881
-0.00195552
-2.32845e-05
0.000171367
-8.87328e-05
0.00047987
-0.000195377
0.000779088
-0.00034175
0.00106524
-0.000525929
0.00133509
-0.000745634
0.00158634
-0.000998367
0.00181792
-0.00128158
0.00203023
-0.00159292
0.0022254
0.00240612
-0.00193022
-2.26465e-05
0.000194013
-8.64364e-05
0.00054366
-0.000190588
0.00088324
-0.000333846
0.0012085
-0.000514501
0.00151574
-0.000730478
0.00180232
-0.000979456
0.0020669
-0.00125902
0.0023098
-0.00156686
0.00253325
0.00274007
-0.00190082
-2.19221e-05
0.000215935
-8.3827e-05
0.000605565
-0.000185142
0.000984555
-0.000324846
0.0013482
-0.000501474
0.00169237
-0.000713185
0.00201403
-0.000957864
0.00231158
-0.00123326
0.00258519
-0.00153714
0.00283713
0.00307026
-0.00186734
-2.11136e-05
0.000237049
-8.09115e-05
0.000665363
-0.00017905
0.00108269
-0.000314766
0.00148392
-0.000486863
0.00186447
-0.000693764
0.00222093
-0.000933591
0.00255141
-0.00120429
0.00285588
-0.00150374
0.00313659
0.00339632
-0.0018298
-2.02235e-05
0.000257272
-7.76989e-05
0.000722838
-0.000172328
0.00117732
-0.000303625
0.00161522
-0.000470688
0.00203153
-0.000672229
0.00242247
-0.00090664
0.00278582
-0.00117209
0.00312134
-0.00146665
0.00343115
0.00371786
-0.00178819
-1.92554e-05
0.000276528
-7.41997e-05
0.000777783
-0.000164995
0.00126812
-0.000291451
0.00174167
-0.000452977
0.00219306
-0.0006486
0.00261809
-0.000877012
0.00301423
-0.00113666
0.00338098
-0.00142583
0.00372031
0.00403454
-0.0017425
-1.82132e-05
0.000294741
-7.04274e-05
0.000829997
-0.000157075
0.00135477
-0.000278275
0.00186287
-0.000433766
0.00234855
-0.000622906
0.00280723
-0.000844717
0.00323604
-0.00109796
0.00363423
-0.00138121
0.00400356
0.00434598
-0.00169266
-1.7102e-05
0.000311843
-6.63978e-05
0.000879293
-0.000148599
0.00143697
-0.000264141
0.00197841
-0.000413105
0.00249751
-0.000595195
0.00298932
-0.00080978
0.00345063
-0.00105598
0.00388042
-0.00133272
0.00428031
0.00465182
-0.00163856
-1.59274e-05
0.00032777
-6.21298e-05
0.000925495
-0.000139601
0.00151444
-0.000249102
0.00208791
-0.00039106
0.00263947
-0.000565535
0.0031638
-0.000772253
0.00365734
-0.00101071
0.00411888
-0.00128029
0.00454988
0.00495161
-0.00158008
-1.46962e-05
0.000342467
-5.7645e-05
0.000968444
-0.000130124
0.00158692
-0.000233222
0.00219101
-0.000367718
0.00277397
-0.000534029
0.00333011
-0.000732236
0.00385555
-0.000962222
0.00434887
-0.00122386
0.00481152
0.0052448
-0.00151705
-1.34153e-05
0.000355882
-5.2967e-05
0.001008
-0.000120215
0.00165417
-0.000216577
0.00228737
-0.000343188
0.00290058
-0.00050082
0.00348774
-0.0006899
0.00404463
-0.000910669
0.00456964
-0.00116348
0.00506433
0.00553066
-0.00144934
-1.20925e-05
0.000367974
-4.81208e-05
0.00104402
-0.000109924
0.00171597
-0.00019925
0.0023767
-0.000317594
0.00301892
-0.000466096
0.00363624
-0.000645512
0.00422405
-0.000856384
0.00478051
-0.00109934
0.00530728
0.00580829
-0.00137697
-1.07348e-05
0.000378709
-4.31311e-05
0.00107642
-9.93013e-05
0.00177214
-0.000181324
0.00245872
-0.000291073
0.00312867
-0.000430078
0.00377525
-0.000599473
0.00439344
-0.000800063
0.0049811
-0.00103215
0.00553937
0.00607687
-0.00130073
-9.34914e-06
0.000388058
-3.80207e-05
0.00110509
-8.83923e-05
0.00182251
-0.000162875
0.0025332
-0.000263741
0.00322954
-0.00039298
0.00390448
-0.000552262
0.00455272
-0.000743047
0.00517189
-0.000965172
0.0057615
0.00633378
-0.00122208
-7.94375e-06
0.000396002
-3.28144e-05
0.00112996
-7.72419e-05
0.00186694
-0.000143967
0.00259993
-0.000235673
0.00332124
-0.000354877
0.00402369
-0.000503988
0.00470184
-0.000685985
0.00535388
-0.000907844
0.00598336
0.00661915
-0.00119321
-6.51896e-06
0.000402521
-2.75201e-05
0.00115096
-6.5868e-05
0.00190529
-0.000124615
0.00265868
-0.000206844
0.00340347
-0.000315578
0.00413242
-0.000453865
0.00484012
-0.000625375
0.00552539
-0.000836093
0.00619407
0.00687208
-0.00108902
-5.08186e-06
0.000407603
-2.21589e-05
0.00116804
-5.43052e-05
0.00193743
-0.000104855
0.00270923
-0.000177248
0.00347586
-0.000274919
0.00423009
-0.000401298
0.0049665
-0.000559954
0.00568405
-0.000754663
0.00638878
0.00709979
-0.000982375
-3.63744e-06
0.00041124
-1.67484e-05
0.00118115
-4.25866e-05
0.00196327
-8.4729e-05
0.00275137
-0.000146913
0.00353805
-0.000232884
0.00431606
-0.000346257
0.00507988
-0.000490249
0.00582804
-0.00066684
0.00656537
0.00730441
-0.000871462
-2.1917e-06
0.000413432
-1.13101e-05
0.00119027
-3.07549e-05
0.00198272
-6.43008e-05
0.00278491
-0.000115924
0.00358967
-0.000189598
0.00438974
-0.000289025
0.0051793
-0.000417099
0.00595611
-0.00057476
0.00672304
0.00748702
-0.000757371
-7.53609e-07
0.000414186
-5.86963e-06
0.00119539
-1.88642e-05
0.00199571
-4.36616e-05
0.00280971
-8.44226e-05
0.00363043
-0.00014529
0.00445061
-0.000230017
0.00526403
-0.000341306
0.0060674
-0.000479653
0.00686138
0.00764845
-0.000641079
6.78372e-07
0.000413507
-4.58507e-07
0.00119652
-6.98006e-06
0.00200223
-2.29257e-05
0.00282566
-5.25915e-05
0.0036601
-0.000100249
0.00449826
-0.000169711
0.00533349
-0.000263628
0.00616132
-0.000382469
0.00698022
0.00778913
-0.000523156
2.08e-06
0.000411427
4.89245e-06
0.00119371
4.82336e-06
0.0020023
-2.22509e-06
0.00283271
-2.06437e-05
0.00367852
-5.48062e-05
0.00453243
-0.000108608
0.00538729
-0.000184773
0.00623748
-0.000284008
0.00707946
0.00790927
-0.000404149
3.45032e-06
0.000407977
1.01428e-05
0.00118702
1.64646e-05
0.00199598
1.82951e-05
0.00283088
1.11893e-05
0.00368562
-9.31008e-06
0.00455292
-4.72055e-05
0.00542519
-0.00010539
0.00629567
-0.000184962
0.00715903
0.00800892
-0.000284611
4.77754e-06
0.000403199
1.52558e-05
0.00117654
2.78597e-05
0.00198338
3.84854e-05
0.00282025
4.26682e-05
0.00368144
3.5886e-05
0.00455971
1.40143e-05
0.00544706
-2.60691e-05
0.00633575
-8.59463e-05
0.00721891
0.00808807
-0.000165091
6.05129e-06
0.000397148
2.01935e-05
0.0011624
3.89243e-05
0.00196464
5.8195e-05
0.00280098
7.3555e-05
0.00366608
8.04376e-05
0.00455282
7.45871e-05
0.00545291
5.26442e-05
0.00635769
1.28176e-05
0.00725874
0.00814737
-4.64894e-05
7.2619e-06
0.000389886
2.49194e-05
0.00114474
4.95771e-05
0.00193999
7.72778e-05
0.00277328
0.000103619
0.00363974
0.000124013
0.00453243
0.000134076
0.00544285
0.000130135
0.00636164
0.000109621
0.00727925
0.00818545
7.15443e-05
8.40055e-06
0.000381486
2.93997e-05
0.00112374
5.97417e-05
0.00190964
9.55962e-05
0.00273742
0.000132644
0.00360269
0.000166301
0.00449877
0.000192074
0.00541708
0.000206015
0.00634769
0.000205157
0.00728011
0.00820271
0.000187894
9.45956e-06
0.000372026
3.36043e-05
0.0010996
6.9349e-05
0.0018739
0.000113024
0.00269375
0.000160428
0.00355529
0.000207015
0.00445219
0.000248206
0.00537589
0.000279809
0.00631609
0.00029843
0.00726149
0.0081993
0.000301844
1.04325e-05
0.000361594
3.75073e-05
0.00107252
7.83381e-05
0.00183307
0.000129449
0.00264264
0.000186792
0.00349794
0.000245892
0.00439309
0.00030212
0.00531966
0.000351067
0.00626714
0.000388947
0.00722361
0.00817528
0.00041297
1.13145e-05
0.000350279
4.10874e-05
0.00104275
8.6658e-05
0.0017875
0.000144774
0.00258452
0.000211575
0.00343114
0.000282697
0.00432196
0.000353496
0.00524886
0.000419389
0.00620125
0.000476238
0.00716676
0.00813078
0.000520731
1.21019e-05
0.000338177
4.43284e-05
0.00101052
9.42676e-05
0.00173756
0.000158919
0.00251987
0.000234642
0.00335542
0.000317223
0.00423938
0.000402047
0.00516404
0.000484402
0.00611889
0.000559847
0.00709131
0.00806604
0.00062459
1.27928e-05
0.000325384
4.72192e-05
0.000976096
0.000101136
0.00168364
0.00017182
0.00244919
0.000255882
0.00327136
0.000349296
0.00414597
0.000447523
0.00506581
0.000545772
0.00602065
0.000639347
0.00699774
0.00798136
0.000724024
1.33864e-05
0.000311998
4.97538e-05
0.000939728
0.000107244
0.00162615
0.000183431
0.002373
0.000275208
0.00317958
0.000378774
0.0040424
0.00048971
0.00495487
0.000603201
0.00590715
0.000714346
0.00688659
0.00787717
0.000818539
1.38835e-05
0.000298114
5.19308e-05
0.000901681
0.000112581
0.0015655
0.000193724
0.00229186
0.000292559
0.00308074
0.000405546
0.00392942
0.000528434
0.00483198
0.000656433
0.00577916
0.000784497
0.00675853
0.00775399
0.000907677
1.42842e-05
0.00028383
5.37499e-05
0.000862215
0.000117142
0.00150211
0.000202679
0.00220632
0.00030789
0.00297553
0.000429528
0.00380778
0.000563553
0.00469796
0.000705252