/*--------------------------------*- C++ -*----------------------------------*\
  =========                 |
  \\      /  F ield         | OpenFOAM: The Open Source CFD Toolbox
   \\    /   O peration     | Website:  https://openfoam.org
    \\  /    A nd           | Version:  7
     \\/     M anipulation  |
\*---------------------------------------------------------------------------*/
FoamFile
{
    version     2.0;
    format      ascii;
    class       volVectorField;
    location    "10";
    object      U;
}
// * * * * * * * * * * * * * * * * * * * * * * * * * * * * * * * * * * * * * //

dimensions      [0 1 -1 0 0 0 0];

internalField   nonuniform List<vector> 
8500
(
(-0.000381739 0.000260729 -9.14774e-22)
(-0.00160472 0.000461256 8.68926e-21)
(-0.00331976 0.00043315 1.80971e-20)
(-0.00457963 0.000241329 -4.72438e-22)
(-0.00491427 -6.24925e-05 -6.83519e-21)
(-0.00401271 -0.000431595 -6.92479e-21)
(-0.00170099 -0.000822986 1.2467e-21)
(0.00203701 -0.00119589 2.06193e-20)
(0.0070865 -0.00151599 -1.18034e-20)
(0.013281 -0.00174553 4.32185e-21)
(-0.000414585 0.000773312 -1.44076e-20)
(-0.00162555 0.00136243 8.55093e-21)
(-0.00324301 0.00127063 -3.06948e-20)
(-0.0043426 0.000691246 -2.96456e-20)
(-0.00446449 -0.00022133 6.62654e-21)
(-0.00330616 -0.00132761 5.4924e-21)
(-0.000700611 -0.00249908 -8.0906e-21)
(0.00335998 -0.00361386 7.13341e-21)
(0.00875563 -0.00456832 1.48152e-20)
(0.01535 -0.00524616 9.35547e-21)
(-0.000477742 0.00125944 -1.4419e-20)
(-0.00166084 0.00220002 -1.55832e-20)
(-0.00308049 0.0020223 1.57114e-20)
(-0.0038578 0.0010438 5.04778e-20)
(-0.00355331 -0.000480706 2.60472e-20)
(-0.00188129 -0.00232098 1.20768e-20)
(0.00131142 -0.00426446 -8.49163e-21)
(0.00601638 -0.0061092 -3.41259e-20)
(0.0121033 -0.00768064 1.60012e-20)
(0.0194962 -0.00877466 -1.11905e-19)
(-0.000566179 0.00170207 -3.36271e-23)
(-0.00169795 0.0029331 4.55278e-21)
(-0.00281428 0.00263312 -3.12417e-20)
(-0.00310388 0.00123681 -1.8028e-20)
(-0.00215763 -0.000904416 -2.45473e-20)
(0.000285283 -0.00347302 -2.37783e-20)
(0.00435759 -0.00617502 6.85726e-20)
(0.010027 -0.00872984 -4.85711e-20)
(0.0171482 -0.0108899 -6.61741e-20)
(0.0257361 -0.012347 5.57232e-20)
(-0.000672432 0.002085 2.24382e-20)
(-0.00171807 0.00352285 -1.51722e-20)
(-0.00241769 0.00305118 -4.08971e-21)
(-0.00204905 0.00121217 2.95676e-21)
(-0.000243051 -0.00155143 2.40427e-20)
(0.00322835 -0.00483966 4.66988e-20)
(0.0084713 -0.008281 -1.84045e-20)
(0.0154228 -0.0115184 5.80553e-20)
(0.0239179 -0.0142286 5.61803e-20)
(0.0340938 -0.0159757 -3.63428e-20)
(-0.000786702 0.00239316 6.56228e-20)
(-0.00169643 0.00393335 -4.25395e-21)
(-0.00185552 0.00322892 3.95546e-20)
(-0.000651323 0.00091737 -3.53111e-20)
(0.00223586 -0.00247401 -7.86796e-20)
(0.0069938 -0.00646932 5.24959e-20)
(0.0136964 -0.0106247 1.20631e-19)
(0.0222439 -0.0145099 2.47284e-20)
(0.0324481 -0.0177226 6.83406e-21)
(0.0446008 -0.0196677 3.91002e-20)
(-0.000896975 0.00261288 -1.18102e-19)
(-0.00160258 0.00413223 2.36015e-20)
(-0.00108441 0.00312421 -1.58416e-20)
(0.00114108 0.000306962 -5.83276e-20)
(0.00533511 -0.00371598 2.61613e-21)
(0.0116381 -0.00840079 -1.94969e-19)
(0.0200869 -0.0132381 -1.86165e-19)
(0.0305396 -0.0177294 -1.44932e-19)
(0.0427822 -0.0213894 8.40248e-20)
(0.0572952 -0.0234239 -7.92011e-21)
(-0.000989144 0.00273208 7.76643e-20)
(-0.00140065 0.00409134 -7.2674e-20)
(-5.31813e-05 0.00270132 4.37668e-20)
(0.00338923 -0.000656155 9.94719e-20)
(0.00912079 -0.005311 -4.85916e-20)
(0.0172279 -0.0106612 3.94657e-20)
(0.0277059 -0.0161406 1.77311e-20)
(0.040367 -0.0211892 1.35855e-19)
(0.05497 -0.0252358 -1.27481e-20)
(0.0722204 -0.027237 -3.69907e-20)
(-0.00104708 0.00274033 2.12445e-20)
(-0.00104976 0.00378726 8.38194e-20)
(0.00129658 0.00193173 -1.39789e-19)
(0.00616293 -0.00199955 7.1233e-20)
(0.0136684 -0.00728108 8.05381e-20)
(0.0238392 -0.013264 1.41196e-19)
(0.0366251 -0.0193367 9.16257e-20)
(0.0517902 -0.0248868 1.1437e-19)
(0.0690664 -0.0292556 6.17766e-21)
(0.0894242 -0.0310906 1.76968e-20)
(-0.00105275 0.00262917 -8.46347e-20)
(-0.000504224 0.00320163 -7.22922e-20)
(0.00302989 0.000794877 1.32525e-19)
(0.00953984 -0.00374029 -1.63712e-20)
(0.0190619 -0.00963533 -1.10337e-19)
(0.0315563 -0.0162076 3.52924e-20)
(0.0469239 -0.0228132 8.34647e-20)
(0.0648791 -0.0288012 -1.69351e-19)
(0.08513 -0.0334265 1.24093e-19)
(0.108957 -0.0349576 8.6273e-20)
(-0.000986526 0.00239211 3.42299e-20)
(0.000285779 0.00232145 6.37796e-20)
(0.0052177 -0.000721304 2.19069e-19)
(0.0136046 -0.00588428 -1.80615e-19)
(0.0253929 -0.0123691 5.46469e-20)
(0.0404712 -0.0194737 7.88492e-20)
(0.0586884 -0.0265378 -6.43679e-20)
(0.0797085 -0.0328903 1.69206e-19)
(0.103221 -0.037707 -1.46874e-19)
(0.130868 -0.0387985 9.69581e-20)
(-0.000827108 0.00202457 8.33206e-21)
(0.0013737 0.00113965 -2.66278e-19)
(0.00793578 -0.00261998 -1.72353e-19)
(0.0184473 -0.00842589 1.45488e-19)
(0.0327589 -0.0154636 1.07419e-19)
(0.0506821 -0.0230266 -2.38553e-20)
(0.0720104 -0.0304569 -1.07335e-19)
(0.0963568 -0.0370874 -3.24844e-20)
(0.123401 -0.0420314 1.88193e-19)
(0.155206 -0.0425585 -2.55514e-20)
(-0.000551787 0.00152414 -1.14539e-19)
(0.0028159 -0.000344822 2.83163e-19)
(0.0112634 -0.00489523 5.18773e-20)
(0.0241619 -0.0113479 -2.63395e-19)
(0.0412615 -0.0188861 4.67929e-20)
(0.0622919 -0.0268138 -3.09158e-19)
(0.0869862 -0.0344951 2.51692e-19)
(0.114906 -0.0412979 -6.60947e-20)
(0.14573 -0.0463042 -4.19136e-19)
(0.182011 -0.0461634 -1.22616e-19)
(-0.000136704 0.000890752 4.15496e-20)
(0.0046707 -0.00212665 -1.81822e-19)
(0.0152817 -0.0075319 5.59063e-21)
(0.030844 -0.0146222 5.63263e-20)
(0.0510043 -0.0225912 -2.93419e-19)
(0.0754061 -0.0307671 3.20765e-20)
(0.103716 -0.0385558 -3.71036e-19)
(0.135441 -0.0453971 -5.16657e-20)
(0.170268 -0.0503912 3.3771e-19)
(0.211315 -0.0495112 1.35763e-19)
(0.000442764 0.000126846 3.57476e-20)
(0.00699701 -0.00419379 8.73672e-20)
(0.0200713 -0.0105057 8.04033e-21)
(0.0385879 -0.0182101 6.23243e-20)
(0.0620891 -0.0265228 2.03354e-19)
(0.0901296 -0.0348064 2.96394e-19)
(0.122303 -0.0425248 -1.28416e-20)
(0.158052 -0.0492295 2.52526e-20)
(0.19708 -0.0541107 -6.00779e-20)
(0.243138 -0.0524617 1.2336e-19)
(0.00121145 -0.000762251 -7.17445e-20)
(0.00985273 -0.0065271 9.77008e-20)
(0.0257097 -0.0137833 2.39971e-20)
(0.0474825 -0.0220641 1.54097e-19)
(0.0746117 -0.0306171 -1.5165e-19)
(0.106563 -0.0388449 -3.01112e-19)
(0.14285 -0.0462777 1.38662e-19)
(0.182841 -0.0526141 -7.00619e-20)
(0.226244 -0.0572282 -1.25726e-19)
(0.277497 -0.0548249 2.74233e-19)
(0.0021936 -0.00176794 1.45049e-19)
(0.0132926 -0.00909982 -1.30411e-19)
(0.032268 -0.0173224 -3.37647e-21)
(0.057607 -0.026129 -2.10181e-20)
(0.0886561 -0.0348065 1.64008e-19)
(0.124796 -0.0427969 2.52016e-19)
(0.165454 -0.0496927 -7.73848e-20)
(0.209914 -0.0553571 5.09942e-20)
(0.257866 -0.059443 7.84245e-20)
(0.314419 -0.0563024 -3.94901e-19)
(0.00341194 -0.00287789 1.06981e-20)
(0.0173659 -0.011877 3.5058e-19)
(0.0398068 -0.0210716 -2.70405e-20)
(0.0690257 -0.0303425 -4.83355e-20)
(0.104287 -0.039023 -1.60106e-19)
(0.144897 -0.0465877 1.83531e-19)
(0.190201 -0.0526707 -1.77291e-19)
(0.239387 -0.0572719 1.37724e-19)
(0.292061 -0.0603275 -3.68511e-20)
(0.353836 -0.0562471 2.56102e-19)
(0.0048865 -0.00407561 -1.97033e-19)
(0.0221136 -0.0148151 -2.55828e-19)
(0.0483725 -0.0249698 -1.47059e-19)
(0.0817813 -0.0346361 3.55566e-19)
(0.12154 -0.0432014 -1.4923e-19)
(0.166904 -0.0501657 -1.14696e-19)
(0.217159 -0.0551706 -9.73607e-20)
(0.271424 -0.0582378 1.97e-19)
(0.329069 -0.059311 -4.6356e-19)
(0.395432 -0.053413 3.02048e-19)
(0.00663339 -0.00534016 -2.02163e-20)
(0.0275663 -0.0178613 2.02212e-20)
(0.0579936 -0.0289456 4.81389e-21)
(0.0958894 -0.0389331 -2.11401e-19)
(0.140411 -0.0472783 9.47207e-20)
(0.190797 -0.0535108 2.11568e-20)
(0.246341 -0.0572554 1.96237e-19)
(0.306283 -0.0583662 -2.48307e-19)
(0.369885 -0.056253 2.59761e-19)
(0.440413 -0.047416 -1.35011e-19)
(0.00866384 -0.00664607 -8.49997e-20)
(0.0337416 -0.0209531 -8.66845e-20)
(0.0686779 -0.0329157 1.33622e-19)
(0.111333 -0.0431443 1.1203e-19)
(0.160843 -0.0511832 -6.71103e-20)
(0.216459 -0.0566191 -1.18378e-19)
(0.277566 -0.0590932 -3.18997e-19)
(0.343864 -0.058223 2.82938e-19)
(0.41584 -0.05279 -1.94064e-19)
(0.497983 -0.0426057 3.33409e-20)
(0.0109834 -0.00796363 -1.08584e-19)
(0.040644 -0.0240191 2.38979e-19)
(0.0804123 -0.0367832 -2.23753e-19)
(0.128066 -0.0471624 -6.57906e-20)
(0.182725 -0.0548186 1.61538e-19)
(0.243663 -0.0594446 -2.68216e-19)
(0.310345 -0.0608027 1.06274e-19)
(0.382783 -0.0586026 -3.80681e-20)
(0.462044 -0.0522976 1.44547e-19)
(0.549785 -0.0462406 -5.87486e-19)
(0.013592 -0.00925967 1.55312e-19)
(0.0482644 -0.0269793 2.55228e-20)
(0.0931645 -0.0404379 5.55611e-20)
(0.146013 -0.0508576 -8.73885e-20)
(0.205916 -0.0580446 -2.29671e-19)
(0.272145 -0.0618404 -1.73357e-19)
(0.344168 -0.0622058 1.26175e-19)
(0.422017 -0.0591128 5.2929e-20)
(0.506564 -0.0527339 2.13768e-19)
(0.596451 -0.0495152 3.93076e-20)
(0.0164838 -0.0104988 -1.31425e-19)
(0.0565817 -0.029748 2.11095e-19)
(0.106887 -0.0437589 7.45297e-21)
(0.165088 -0.0540814 1.29538e-19)
(0.230268 -0.0606852 -2.08648e-20)
(0.301664 -0.063585 5.98523e-20)
(0.378669 -0.0629627 1.1904e-19)
(0.461125 -0.0590547 -1.16366e-19)
(0.549354 -0.052455 -6.28047e-20)
(0.640055 -0.0502271 6.13899e-19)
(0.0196486 -0.0116447 1.46275e-19)
(0.0655643 -0.0322364 3.33641e-20)
(0.12152 -0.0466192 1.25034e-19)
(0.185192 -0.0566746 9.46658e-21)
(0.255634 -0.0625469 5.32505e-20)
(0.33202 -0.0644328 1.70248e-19)
(0.413614 -0.0627269 -3.92843e-19)
(0.499975 -0.0578863 1.19727e-19)
(0.590833 -0.0507305 -8.39762e-20)
(0.681909 -0.0483413 -2.02198e-19)
(0.0230721 -0.0126617 7.77462e-20)
(0.0751714 -0.034356 -2.75909e-20)
(0.136993 -0.0488908 -5.69113e-20)
(0.206221 -0.0584762 -2.49258e-19)
(0.281874 -0.0634353 8.59674e-20)
(0.363042 -0.0641455 3.18712e-19)
(0.448837 -0.0611952 -3.19382e-20)
(0.538518 -0.0552174 7.20457e-20)
(0.631303 -0.0471514 2.29016e-19)
(0.722514 -0.0438388 -5.67471e-20)
(0.0267368 -0.0135154 -9.50267e-20)
(0.0853544 -0.036021 -1.0113e-20)
(0.153226 -0.0504497 -2.5385e-19)
(0.228063 -0.0593313 3.40566e-20)
(0.308844 -0.0631668 -2.95426e-19)
(0.394572 -0.0625089 -2.96963e-19)
(0.484198 -0.0581186 1.85949e-20)
(0.576704 -0.0507695 1.75689e-19)
(0.670899 -0.0414686 -4.40785e-19)
(0.762037 -0.0367115 -1.05918e-19)
(0.0306226 -0.0141742 -8.64366e-20)
(0.0960577 -0.0371513 -7.63548e-20)
(0.17013 -0.0511798 2.47405e-19)
(0.250598 -0.0590969 -4.55103e-20)
(0.336401 -0.0615778 9.07949e-20)
(0.426453 -0.059342 3.68698e-20)
(0.519556 -0.0533058 2.93221e-19)
(0.614452 -0.04436 -1.744e-19)
(0.709638 -0.0335598 6.24539e-21)
(0.800481 -0.0270225 2.72013e-19)
(0.0347073 -0.0146088 1.61695e-19)
(0.107219 -0.0376736 -1.90704e-19)
(0.187608 -0.0509764 2.47832e-20)
(0.273696 -0.0576468 -2.74938e-20)
(0.364389 -0.058529 1.40858e-19)
(0.45852 -0.0545017 -2.14104e-20)
(0.554758 -0.0466224 1.21684e-19)
(0.651646 -0.0358864 5.37766e-20)
(0.747449 -0.023397 8.11288e-20)
(0.837753 -0.0148848 -4.13908e-20)
(0.0389668 -0.0147933 -1.50834e-19)
(0.118772 -0.0375228 2.96015e-20)
(0.205554 -0.049748 -7.01879e-21)
(0.297219 -0.0548743 2.45422e-19)
(0.392646 -0.0539094 2.15069e-19)
(0.490598 -0.0478839 9.94017e-20)
(0.589632 -0.0379866 -4.84109e-19)
(0.688133 -0.0253119 1.69096e-19)
(0.784202 -0.0110187 2.34207e-20)
(0.873695 -0.00044838 2.72384e-20)
(0.043375 -0.0147048 -1.61177e-19)
(0.130641 -0.0366426 1.61477e-19)
(0.223853 -0.0474178 1.57573e-19)
(0.321016 -0.0506941 -3.12596e-19)
(0.420995 -0.0476371 -4.34707e-20)
(0.522494 -0.0394225 1.30298e-20)
(0.623984 -0.0273641 2.30692e-19)
(0.723731 -0.0126537 -1.20865e-19)
(0.819723 0.00348591 7.52739e-20)
(0.908116 0.0161057 -7.1876e-20)
(0.0479038 -0.0143235 1.70112e-19)
(0.142749 -0.034986 -1.2286e-20)
(0.242383 -0.0439245 -1.31715e-20)
(0.344929 -0.0450432 6.94172e-20)
(0.449248 -0.0396591 -8.14046e-20)
(0.554006 -0.0290881 2.2055e-20)
(0.657607 -0.0147629 -2.1412e-19)
(0.758234 0.00202709 1.51809e-19)
(0.853814 0.0199889 -3.57856e-20)
(0.94081 0.0345707 6.04814e-20)
(0.0525232 -0.0136328 5.95948e-21)
(0.155009 -0.0325154 -6.327e-20)
(0.26101 -0.0392233 -7.62413e-20)
(0.368788 -0.0378811 8.1027e-20)
(0.477209 -0.0299518 2.8629e-19)
(0.584917 -0.0168853 -2.44598e-19)
(0.690278 -0.00022876 -5.06274e-20)
(0.791426 0.0186319 -1.45567e-19)
(0.886265 0.0383312 -1.12543e-19)
(0.971569 0.0547207 -4.09871e-21)
(0.0572008 -0.0126192 -6.66364e-20)
(0.167333 -0.029203 2.77211e-21)
(0.279599 -0.0332852 2.23803e-20)
(0.392415 -0.0291897 -3.91018e-20)
(0.504671 -0.018519 -1.81124e-19)
(0.615005 -0.00285085 4.73084e-20)
(0.72177 0.0161591 1.33894e-19)
(0.823083 0.037031 2.53681e-20)
(0.916865 0.0583298 -1.28416e-19)
(1.00019 0.0763158 -1.60052e-19)
(0.0619018 -0.0112725 7.87437e-20)
(0.179626 -0.0250311 -1.00303e-19)
(0.298003 -0.026098 -5.58171e-20)
(0.415626 -0.0189734 -3.34427e-20)
(0.531422 -0.00539146 7.74243e-20)
(0.644043 0.0129492 1.24024e-19)
(0.751852 0.0342919 -8.72274e-22)
(0.852983 0.0570687 6.16594e-20)
(0.945408 0.0797827 1.41582e-19)
(1.0265 0.099108 1.48719e-19)
(0.0665895 -0.00958623 -1.70438e-20)
(0.191786 -0.019992 1.20484e-19)
(0.316073 -0.0176658 2.06785e-20)
(0.438233 -0.00725801 -2.61174e-20)
(0.557247 0.00937459 -1.80363e-20)
(0.671803 0.0304216 -5.48874e-20)
(0.780298 0.0540348 1.01159e-19)
(0.880912 0.0785674 -1.24944e-19)
(0.971703 0.102474 -4.03962e-20)
(1.05034 0.122845 -4.57283e-20)
(0.0712246 -0.00755727 -6.34363e-20)
(0.203711 -0.0140889 -2.64903e-20)
(0.333654 -0.00800961 8.35988e-20)
(0.460045 0.00590919 -1.57288e-20)
(0.581933 0.0256987 3.7724e-20)
(0.698062 0.0494481 3.91038e-20)
(0.806888 0.07523 -7.42396e-20)
(0.906669 0.101332 1.29483e-19)
(0.995577 0.126176 4.74416e-21)
(1.07156 0.147275 1.06704e-19)
(0.0757662 -0.00518671 4.82076e-21)
(0.215295 -0.00733576 5.14889e-20)
(0.35059 0.0028333 -3.18239e-20)
(0.48087 0.0204603 -6.78474e-20)
(0.605268 0.0434777 -3.40702e-20)
(0.722603 0.0698879 -2.97839e-20)
(0.831417 0.0976999 6.25788e-20)
(0.93007 0.125152 -1.86383e-20)
(1.01688 0.150656 -1.00495e-19)
(1.09006 0.172149 -5.07973e-21)
(0.0801718 -0.00247988 1.72078e-20)
(0.226427 0.000242139 -1.03031e-20)
(0.366724 0.0148089 3.41954e-20)
(0.500519 0.0363073 3.46196e-20)
(0.627047 0.0625871 6.69295e-21)
(0.745221 0.09158 -1.71106e-20)
(0.853693 0.12125 -4.00487e-20)
(0.950952 0.149807 -4.32286e-23)
(1.03549 0.175678 4.18756e-20)
(1.10576 0.197224 -2.90626e-20)
(0.0843975 0.000553377 8.42144e-22)
(0.236998 0.00860792 -5.28151e-21)
(0.381901 0.0278467 -3.02869e-20)
(0.518809 0.0533432 2.34613e-21)
(0.647074 0.0828823 6.38796e-21)
(0.765726 0.114345 6.8924e-21)
(0.873544 0.145672 1.75611e-20)
(0.969174 0.175068 -1.40133e-20)
(1.0513 0.201004 3.71832e-21)
(1.11861 0.222265 -1.47399e-21)
(0.0883996 0.0038985 -6.02262e-21)
(0.246901 0.0177131 -4.95359e-21)
(0.39597 0.0418602 -2.51764e-20)
(0.535564 0.0714425 5.02278e-21)
(0.665168 0.104201 4.61333e-21)
(0.783942 0.137989 1.02898e-20)
(0.89082 0.170747 1.12404e-20)
(0.984621 0.200702 -1.27248e-20)
(1.06424 0.226399 3.54291e-21)
(1.1286 0.247049 -1.25803e-21)
(0.092134 0.0075361 2.68291e-20)
(0.256029 0.0274974 -1.7205e-20)
(0.408785 0.0567475 3.81763e-20)
(0.550618 0.0904631 2.32976e-20)
(0.681158 0.126365 1.80181e-21)
(0.799716 0.162303 -5.76488e-21)
(0.905392 0.196246 -3.48549e-20)
(0.997204 0.226471 -5.2288e-21)
(1.07426 0.251629 2.6257e-20)
(1.13571 0.27136 -5.79647e-21)
(0.0955572 0.0114418 1.75262e-20)
(0.264278 0.0378894 1.93744e-20)
(0.420209 0.0723917 -1.85167e-20)
(0.56382 0.110247 -5.5764e-20)
(0.694896 0.149182 -4.46689e-20)
(0.812913 0.187069 1.97724e-20)
(0.917158 0.221936 8.01005e-21)
(1.00686 0.252141 -1.3587e-20)
(1.08135 0.276471 -5.79993e-20)
(1.13998 0.294997 3.33129e-21)
(0.0986277 0.0155863 -3.82917e-20)
(0.271553 0.0488062 -5.31771e-21)
(0.430116 0.0886622 3.30883e-20)
(0.57503 0.130622 3.93318e-20)
(0.70625 0.172447 2.34579e-20)
(0.823425 0.21206 6.09079e-21)
(0.92604 0.24758 -3.25775e-20)
(1.01355 0.277476 5.72284e-20)
(1.08552 0.300705 3.03167e-20)
(1.14146 0.317771 4.24993e-20)
(0.101306 0.0199357 -4.81476e-20)
(0.277765 0.0601548 1.02969e-19)
(0.43839 0.105416 -1.93917e-20)
(0.584131 0.151405 1.64115e-20)
(0.71511 0.195946 8.2844e-21)
(0.831165 0.237046 -6.70968e-20)
(0.931987 0.272941 1.63049e-20)
(1.01726 0.302249 -2.29636e-20)
(1.08679 0.324121 -4.71895e-20)
(1.14022 0.339504 -2.83176e-20)
(0.103557 0.0244515 3.88786e-20)
(0.282835 0.0718326 -1.02631e-19)
(0.444935 0.122499 -1.98654e-20)
(0.591022 0.172403 -7.30029e-22)
(0.721393 0.21946 5.64824e-21)
(0.836075 0.261791 6.28189e-20)
(0.934972 0.297785 2.10427e-20)
(1.018 0.326236 5.17504e-20)
(1.08521 0.346521 5.18796e-20)
(1.13635 0.360033 3.62639e-20)
(0.105348 0.0290911 -4.14193e-20)
(0.286693 0.0837287 -1.99014e-20)
(0.449666 0.139748 1.23696e-20)
(0.595624 0.193413 -1.08449e-20)
(0.725035 0.242764 -1.30388e-19)
(0.838119 0.286062 4.05774e-20)
(0.934995 0.321881 2.0643e-20)
(1.01582 0.349223 1.85258e-20)
(1.08086 0.367716 6.37981e-21)
(1.12996 0.379206 -8.10444e-20)
(0.106652 0.0338086 4.14534e-20)
(0.289284 0.0957256 -4.18873e-20)
(0.452522 0.156993 -3.30747e-20)
(0.597883 0.214231 4.02922e-20)
(0.726002 0.265631 1.06144e-19)
(0.83729 0.309629 -8.4001e-20)
(0.93208 0.345009 -4.70816e-20)
(1.01076 0.371009 -3.97673e-20)
(1.07382 0.387527 -6.23429e-20)
(1.12116 0.396882 2.6925e-20)
(0.107448 0.038555 1.42398e-20)
(0.290565 0.1077 3.91067e-20)
(0.453457 0.17406 1.09992e-20)
(0.597767 0.234649 2.57416e-20)
(0.724285 0.287839 -6.7341e-20)
(0.833606 0.332267 -1.11024e-20)
(0.926272 0.366955 -1.11204e-20)
(1.0029 0.391403 3.55539e-20)
(1.06419 0.405791 1.12532e-20)
(1.11004 0.412924 3.19118e-21)
(0.107718 0.0432792 -4.3451e-21)
(0.29051 0.119525 4.00486e-20)
(0.45245 0.190771 1.77274e-20)
(0.595269 0.254459 -6.73202e-20)
(0.719899 0.309168 -1.39813e-20)
(0.82711 0.353759 -6.19683e-21)
(0.917641 0.387519 7.62977e-20)
(0.992339 0.410228 -3.58728e-20)
(1.0521 0.422377 3.56961e-20)
(1.09673 0.427206 -2.12004e-20)
(0.107455 0.0479286 -3.22853e-20)
(0.289106 0.131073 2.63174e-20)
(0.4495 0.206949 1.1468e-20)
(0.590409 0.273457 6.15943e-20)
(0.712891 0.329405 3.5113e-20)
(0.81787 0.373902 4.74101e-20)
(0.906277 0.406511 -9.08766e-20)
(0.979174 0.427312 8.07688e-21)
(1.03764 0.437155 2.16322e-20)
(1.08142 0.439626 8.92291e-21)
(0.106654 0.0524499 3.37415e-20)
(0.286357 0.142214 -4.11215e-20)
(0.444629 0.222419 -3.26447e-20)
(0.583232 0.291445 3.3899e-20)
(0.703328 0.348348 -1.89639e-20)
(0.80598 0.392502 5.17596e-21)
(0.892286 0.423764 3.55997e-20)
(0.963516 0.442516 -8.28224e-21)
(1.02093 0.449976 -8.81395e-22)
(1.06426 0.450113 1.32731e-20)
(0.105321 0.0567902 -1.38051e-20)
(0.282285 0.152822 -5.11371e-21)
(0.437879 0.237011 8.6075e-21)
(0.573808 0.30823 6.05272e-21)
(0.691309 0.365804 -2.05169e-20)
(0.791557 0.409385 7.34274e-21)
(0.875797 0.439125 1.48059e-20)
(0.945494 0.455718 -2.28099e-21)
(1.00209 0.460739 -3.52717e-20)
(1.04534 0.45856 -2.08198e-20)
(0.103466 0.0608976 5.99967e-21)
(0.276926 0.162774 7.94684e-21)
(0.429316 0.25056 -2.64638e-20)
(0.562233 0.323634 -1.8985e-20)
(0.676956 0.381598 -1.48606e-20)
(0.774743 0.424391 1.33461e-21)
(0.856956 0.452464 -1.55602e-20)
(0.925243 0.466814 1.05573e-20)
(0.981237 0.469359 4.18959e-20)
(1.02478 0.46487 1.47584e-20)
(0.101106 0.0647217 8.68715e-21)
(0.270332 0.17195 1.06302e-20)
(0.419029 0.26291 6.96429e-21)
(0.548626 0.337485 3.31885e-21)
(0.660418 0.395565 6.38836e-21)
(0.755705 0.437379 -2.77791e-20)
(0.835933 0.46367 -2.57163e-20)
(0.902905 0.475724 1.64617e-20)
(0.958476 0.47577 -4.02497e-20)
(1.00266 0.468954 2.0207e-20)
(0.0982652 0.0682137 -9.71431e-21)
(0.262571 0.18024 -3.98996e-21)
(0.407122 0.273915 1.03156e-20)
(0.533131 0.349628 -6.96403e-22)
(0.641868 0.407559 -1.07902e-20)
(0.734636 0.448228 -3.86335e-20)
(0.812919 0.472657 6.22162e-20)
(0.878638 0.482397 -4.29259e-20)
(0.933884 0.479935 2.42438e-20)
(0.979064 0.470724 1.5473e-19)
(0.0949739 0.071329 2.18082e-20)
(0.253724 0.187538 -1.9298e-20)
(0.393721 0.28344 4.33917e-21)
(0.515912 0.359918 1.05713e-21)
(0.621502 0.417446 -4.67387e-20)
(0.711754 0.456831 -1.91963e-20)
(0.788135 0.479359 -2.10416e-20)
(0.852618 0.486813 -5.68985e-20)
(0.907517 0.481851 9.09763e-20)
(0.953986 0.470086 -2.4203e-19)
(0.0912667 0.0740258 -7.34667e-20)
(0.243882 0.193747 3.60926e-20)
(0.378969 0.29136 -7.34695e-20)
(0.497153 0.368226 1.89532e-20)
(0.59954 0.42511 8.74317e-20)
(0.687306 0.4631 4.99267e-20)
(0.761837 0.483731 -8.68356e-20)
(0.825054 0.488989 -6.11889e-20)
(0.879405 0.481555 -1.2955e-20)
(0.927349 0.466909 -1.29582e-19)
(0.0871827 0.0762655 -2.63147e-20)
(0.23315 0.19878 -2.7034e-20)
(0.363019 0.297565 6.16985e-20)
(0.477051 0.374436 4.51314e-20)
(0.576216 0.430445 -5.92217e-20)
(0.661562 0.466957 4.8536e-20)
(0.734326 0.485748 3.98307e-20)
(0.796223 0.488987 3.63974e-20)
(0.849633 0.479185 -3.25487e-19)
(0.898824 0.461082 5.1322e-19)
(0.0827652 0.0780138 1.1766e-20)
(0.22164 0.20256 5.51045e-20)
(0.346039 0.301957 5.81097e-21)
(0.455817 0.378447 -1.54237e-19)
(0.551781 0.43336 5.62085e-20)
(0.634814 0.468329 1.72432e-20)
(0.705954 0.485379 1.13804e-19)
(0.766552 0.486902 6.54334e-20)
(0.818602 0.475162 1.07388e-19)
(0.867731 0.453312 -1.25839e-19)
(0.0780612 0.0792408 -6.07879e-20)
(0.209472 0.205021 -1.31198e-19)
(0.328203 0.304453 8.8604e-20)
(0.433669 0.380172 1.31907e-19)
(0.526486 0.43377 -3.73755e-20)
(0.607355 0.467137 -7.36678e-20)
(0.677094 0.482545 -2.33195e-19)
(0.736653 0.482679 3.08639e-19)
(0.787476 0.469896 -7.83681e-20)
(0.833315 0.44527 1.64222e-20)
(0.0731198 0.0799208 1.35035e-19)
(0.196771 0.206107 2.50758e-19)
(0.309693 0.304986 5.25896e-21)
(0.410825 0.379544 -1.108e-19)
(0.500575 0.43161 6.1527e-20)
(0.579451 0.463304 1.66216e-19)
(0.648065 0.477108 -9.8639e-20)
(0.707139 0.475903 9.02828e-20)
(0.758117 0.462253 1.1934e-19)
(0.804569 0.436964 -1.17e-19)
(0.0679929 0.0800334 -5.96303e-20)
(0.183667 0.205776 -1.59001e-19)
(0.290691 0.303506 -1.16074e-19)
(0.387504 0.376515 1.55927e-19)
(0.474284 0.426839 4.56453e-20)
(0.551329 0.456788 -1.3258e-19)
(0.619047 0.469009 1.01641e-19)
(0.677969 0.466472 -1.83678e-19)
(0.729433 0.451817 2.06204e-19)
(0.776354 0.426041 -2.56877e-19)
(0.0627341 0.0795636 -1.15478e-19)
(0.170292 0.204 1.7946e-19)
(0.271385 0.299986 1.08337e-20)
(0.363924 0.371064 1.17505e-19)
(0.44784 0.419444 -3.26931e-19)
(0.523202 0.447593 -3.25184e-19)
(0.590197 0.458273 1.86826e-19)
(0.649151 0.454498 5.43961e-21)
(0.701184 0.438933 -1.76928e-19)
(0.748553 0.412885 6.17598e-19)
(0.0573992 0.0785025 1.38673e-19)
(0.156784 0.200765 -2.01952e-19)
(0.251963 0.294415 1.23654e-19)
(0.340304 0.363192 -8.63499e-20)
(0.42147 0.409444 -3.82582e-20)
(0.495287 0.435754 4.91009e-19)
(0.5617 0.444969 -4.06407e-19)
(0.620815 0.440122 1.23633e-19)
(0.673499 0.42391 1.7113e-19)
(0.721464 0.39794 -1.88955e-19)
(0.0520448 0.0768476 -2.45943e-19)
(0.14328 0.196071 2.50861e-20)
(0.232615 0.286804 -5.18277e-20)
(0.316861 0.352925 -1.5696e-19)
(0.395402 0.39688 -2.98265e-19)
(0.467803 0.421335 -1.88183e-19)
(0.533752 0.429186 -5.07502e-20)
(0.593131 0.423465 6.21857e-21)
(0.646543 0.406902 -1.29322e-19)
(0.695236 0.381352 7.05138e-20)
(0.0467282 0.0746024 -1.1616e-19)
(0.129918 0.189934 2.5668e-19)
(0.213529 0.277184 -2.50429e-20)
(0.293813 0.340309 2.61266e-20)
(0.369862 0.381817 1.80741e-19)
(0.440968 0.404416 1.28183e-19)
(0.50656 0.411019 3.73565e-19)
(0.566284 0.404635 2.16251e-19)
(0.620483 0.388008 -6.92975e-19)
(0.67001 0.363172 1.35652e-19)
(0.0415066 0.071777 1.93759e-19)
(0.116834 0.182384 -3.11351e-19)
(0.194894 0.265604 -4.5253e-20)
(0.271373 0.325412 1.84852e-19)
(0.345072 0.364336 1.11212e-19)
(0.415003 0.385093 5.59123e-19)
(0.480328 0.390574 -4.69521e-19)
(0.540464 0.383737 3.82244e-20)
(0.595498 0.367312 3.94253e-19)
(0.645937 0.343439 3.58589e-19)
(0.036436 0.0683874 3.32751e-20)
(0.104164 0.173464 3.77004e-19)
(0.17689 0.252131 1.75064e-19)
(0.249751 0.308318 -9.79947e-20)
(0.321249 0.34454 -1.79217e-19)
(0.390119 0.363476 -4.75632e-21)
(0.455259 0.367964 1.54757e-19)
(0.515858 0.360878 8.08884e-20)
(0.571758 0.344899 -2.0498e-19)
(0.623165 0.322204 -4.49464e-20)
(0.0315714 0.0644555 5.99527e-20)
(0.0920372 0.16323 -3.65441e-19)
(0.159695 0.236849 -2.25573e-19)
(0.229148 0.289134 3.2116e-19)
(0.298604 0.322544 3.02733e-20)
(0.366525 0.339688 -4.14122e-19)
(0.431548 0.343309 2.6487e-19)
(0.492647 0.336168 -1.28305e-19)
(0.549426 0.320855 2.04774e-19)
(0.601829 0.299527 -9.40941e-20)
(0.026965 0.0600089 -3.6333e-20)
(0.0805779 0.151753 2.1466e-19)
(0.143477 0.219857 -1.08253e-19)
(0.209755 0.267979 -1.29476e-19)
(0.277335 0.298483 1.96351e-19)
(0.344413 0.313865 2.53173e-20)
(0.409379 0.316741 1.50557e-20)
(0.470997 0.309723 1.14212e-19)
(0.528652 0.295276 -1.44863e-19)
(0.582051 0.275481 -3.37596e-19)
(0.0226666 0.0550801 -3.55946e-20)
(0.0699036 0.139114 -1.01385e-19)
(0.128396 0.20127 3.80884e-19)
(0.191752 0.24499 -2.70067e-19)
(0.257628 0.272502 -1.84586e-19)
(0.323966 0.286157 -2.68961e-19)
(0.388922 0.288401 -2.0767e-19)
(0.451065 0.281671 -6.59825e-20)
(0.509569 0.268269 -1.4827e-19)
(0.563942 0.250155 1.78713e-19)
(0.0187221 0.0497067 -9.19541e-20)
(0.0601236 0.125404 -3.1148e-21)
(0.114597 0.181218 -1.10836e-19)
(0.175307 0.220318 -1.91344e-19)
(0.239656 0.244765 7.77679e-20)
(0.305353 0.256724 -5.89547e-20)
(0.370334 0.258443 -1.98099e-19)
(0.432989 0.252148 -1.3219e-19)
(0.492302 0.239949 1.87142e-19)
(0.547601 0.22365 7.79295e-20)
(0.0151738 0.0439305 2.972e-19)
(0.0513376 0.110726 4.7903e-21)
(0.102215 0.159842 3.26283e-20)
(0.16057 0.194128 9.55038e-20)
(0.223576 0.215444 -6.3722e-20)
(0.288724 0.225739 3.40032e-19)
(0.353756 0.227028 4.01132e-19)
(0.416895 0.2213 2.61634e-19)
(0.476956 0.210445 -3.30826e-20)
(0.533115 0.196077 -3.80796e-20)
(0.0120595 0.037797 -2.31294e-19)
(0.0436348 0.0951901 -7.71352e-21)
(0.0913718 0.137294 -4.27747e-20)
(0.147679 0.166598 1.89438e-19)
(0.209526 0.184727 -2.50124e-20)
(0.274215 0.193386 -5.73179e-20)
(0.339311 0.19433 -1.80099e-19)
(0.402895 0.189285 -1.09719e-19)
(0.463628 0.179894 6.37245e-20)
(0.52056 0.167559 -1.47342e-19)
(0.0094123 0.0313555 -7.93854e-20)
(0.0370934 0.0789148 -8.75119e-21)
(0.0821709 0.113738 -1.43467e-20)
(0.136752 0.137914 9.79391e-22)
(0.19763 0.15281 4.30694e-20)
(0.261943 0.159858 -1.63671e-19)
(0.327108 0.160529 1.19445e-19)
(0.391082 0.156266 -1.72768e-19)
(0.452398 0.148442 -7.65909e-20)
(0.509999 0.138228 8.42242e-20)
(0.00726024 0.0246578 2.58037e-20)
(0.0317795 0.0620256 -4.37135e-20)
(0.0747017 0.0893447 1.38033e-19)
(0.127888 0.108273 1.6312e-20)
(0.187987 0.119899 6.32876e-20)
(0.252006 0.125357 3.27435e-20)
(0.317236 0.125816 -1.34906e-19)
(0.381537 0.122415 1.31736e-19)
(0.443333 0.116242 1.11421e-19)
(0.501487 0.108221 -1.77716e-19)
(0.00562605 0.0177584 6.28163e-21)
(0.0277465 0.0446529 6.32347e-20)
(0.0690361 0.0642928 -3.05946e-20)
(0.121168 0.0778802 -1.18208e-19)
(0.180683 0.0862053 -9.83939e-20)
(0.244483 0.0900917 1.63557e-20)
(0.309769 0.0903852 -8.72504e-21)
(0.374322 0.0879103 8.20438e-20)
(0.436487 0.0834541 7.03484e-20)
(0.495065 0.077684 1.26031e-19)
(0.00452695 0.0107136 5.59391e-20)
(0.0250352 0.026932 -3.08592e-20)
(0.0652286 0.0387666 6.12006e-20)
(0.116654 0.046946 4.04066e-20)
(0.175778 0.0519494 3.17051e-20)
(0.239434 0.0542762 -3.26431e-20)
(0.30476 0.0544385 1.76515e-20)
(0.369485 0.0529353 1.85493e-21)
(0.4319 0.0502428 -1.3126e-20)
(0.490767 0.0467642 -8.95696e-20)
(0.00397449 0.00358099 -6.61533e-21)
(0.0236727 0.00900075 -8.16981e-21)
(0.0633156 0.0129541 -5.34967e-20)
(0.114387 0.0156851 -3.7653e-21)
(0.173315 0.0173543 2.68506e-20)
(0.2369 0.018129 1.38498e-20)
(0.302246 0.0181808 3.38097e-21)
(0.367059 0.0176767 -4.08043e-20)
(0.4296 0.0167761 2.3964e-20)
(0.488612 0.0156138 -2.75009e-20)
(0.00397449 -0.00358098 3.68484e-22)
(0.0236727 -0.00900074 -2.21452e-20)
(0.0633156 -0.0129541 -4.74217e-20)
(0.114387 -0.015685 1.52853e-21)
(0.173315 -0.0173542 2.46325e-20)
(0.2369 -0.018129 4.5987e-21)
(0.302246 -0.0181808 9.22091e-21)
(0.367059 -0.0176767 -3.43677e-20)
(0.4296 -0.016776 2.4792e-20)
(0.488612 -0.0156138 -2.80076e-20)
(0.00452695 -0.0107136 4.03295e-20)
(0.0250352 -0.026932 -2.11479e-20)
(0.0652286 -0.0387666 7.48628e-20)
(0.116654 -0.046946 6.89236e-20)
(0.175778 -0.0519494 -1.5518e-20)
(0.239434 -0.0542762 -1.21789e-20)
(0.30476 -0.0544385 1.75373e-20)
(0.369485 -0.0529353 -1.50144e-20)
(0.4319 -0.0502428 -3.12766e-20)
(0.490767 -0.0467642 -1.95785e-20)
(0.00562605 -0.0177584 3.81339e-20)
(0.0277465 -0.0446529 3.88487e-20)
(0.0690361 -0.0642928 -3.78672e-20)
(0.121168 -0.0778802 -1.16762e-19)
(0.180683 -0.0862053 -5.85892e-20)
(0.244483 -0.0900917 -2.66387e-20)
(0.309769 -0.0903851 1.81236e-20)
(0.374322 -0.0879103 7.2505e-20)
(0.436487 -0.0834541 -3.34893e-20)
(0.495065 -0.077684 2.33629e-19)
(0.00726024 -0.0246578 -1.82369e-21)
(0.0317795 -0.0620256 -1.14637e-20)
(0.0747017 -0.0893447 7.27057e-20)
(0.127888 -0.108273 4.2441e-20)
(0.187987 -0.119899 5.47699e-20)
(0.252006 -0.125357 5.13584e-20)
(0.317236 -0.125816 -1.45051e-19)
(0.381537 -0.122415 1.01092e-19)
(0.443333 -0.116242 1.36032e-19)
(0.501487 -0.108221 -1.15735e-19)
(0.0094123 -0.0313555 -6.04774e-20)
(0.0370934 -0.0789148 3.62463e-20)
(0.0821709 -0.113738 5.70574e-21)
(0.136752 -0.137914 -6.56549e-21)
(0.19763 -0.15281 -5.2428e-20)
(0.261943 -0.159858 -9.79331e-20)
(0.327108 -0.160529 3.93606e-20)
(0.391082 -0.156266 -1.19966e-19)
(0.452398 -0.148442 -1.16246e-19)
(0.509999 -0.138228 7.46728e-20)
(0.0120595 -0.037797 -1.62934e-19)
(0.0436348 -0.0951901 9.55463e-21)
(0.0913718 -0.137294 -9.02085e-20)
(0.147679 -0.166598 7.60195e-20)
(0.209526 -0.184727 1.6475e-19)
(0.274215 -0.193386 -1.04559e-19)
(0.339311 -0.19433 -2.43204e-19)
(0.402895 -0.189285 -4.79822e-20)
(0.463628 -0.179894 -1.4952e-20)
(0.52056 -0.167559 -7.80126e-20)
(0.0151738 -0.0439305 2.88476e-19)
(0.0513376 -0.110726 -5.13219e-20)
(0.102215 -0.159842 3.36246e-20)
(0.16057 -0.194128 1.16123e-19)
(0.223576 -0.215444 -7.23543e-21)
(0.288724 -0.225739 3.8939e-19)
(0.353756 -0.227028 3.67866e-19)
(0.416895 -0.2213 2.83367e-19)
(0.476956 -0.210445 -1.6455e-19)