/*--------------------------------*- C++ -*----------------------------------*\
  =========                 |
  \\      /  F ield         | OpenFOAM: The Open Source CFD Toolbox
   \\    /   O peration     | Website:  https://openfoam.org
    \\  /    A nd           | Version:  7
     \\/     M anipulation  |
\*---------------------------------------------------------------------------*/
FoamFile
{
    version     2.0;
    format      ascii;
    class       volVectorField;
    location    "5";
    object      U;
}
// * * * * * * * * * * * * * * * * * * * * * * * * * * * * * * * * * * * * * //

dimensions      [0 1 -1 0 0 0 0];

internalField   nonuniform List<vector> 
12772
(
(-0.00515397 0.00416731 4.57086e-21)
(-0.0258304 0.00880451 1.62035e-20)
(-0.062406 0.0113256 -6.02325e-21)
(-0.104658 0.0125958 4.36666e-21)
(-0.149927 0.0131555 -3.1893e-20)
(-0.196653 0.0133705 -1.39786e-20)
(-0.24405 0.0134442 -3.02312e-21)
(-0.291831 0.0134561 -4.63927e-20)
(-0.339652 0.0133979 6.22999e-21)
(-0.387532 0.0133313 3.05691e-20)
(-0.00555235 0.0122877 -4.18508e-20)
(-0.0261445 0.0260387 -8.65416e-21)
(-0.0618825 0.0335709 2.59789e-20)
(-0.103024 0.0373936 -9.84416e-20)
(-0.146985 0.0390879 -1.25382e-20)
(-0.19219 0.0397343 1.86459e-20)
(-0.237785 0.0399398 6.64889e-21)
(-0.283408 0.0399488 1.28445e-19)
(-0.328557 0.0397457 -9.68593e-20)
(-0.373045 0.0394995 1.70099e-20)
(-0.00631261 0.0198465 8.07224e-20)
(-0.0267461 0.0423089 -1.1114e-20)
(-0.0608626 0.0547966 4.47944e-20)
(-0.0998396 0.0612254 1.00864e-19)
(-0.141246 0.0641104 2.09938e-19)
(-0.183479 0.0652002 -1.54444e-19)
(-0.225566 0.0654967 2.14004e-22)
(-0.267 0.0654234 -1.26077e-19)
(-0.307011 0.0649827 1.6536e-19)
(-0.344949 0.0643982 -1.63553e-19)
(-0.00736632 0.0265166 9.45658e-21)
(-0.0275847 0.0570323 -6.83498e-21)
(-0.0593982 0.0743663 5.06289e-20)
(-0.0952676 0.0834755 -7.29188e-20)
(-0.132985 0.0876386 -5.59395e-20)
(-0.170932 0.0891957 2.73167e-19)
(-0.207976 0.0895255 -8.51697e-20)
(-0.243434 0.0892494 -2.54942e-19)
(-0.276216 0.0884352 -8.69053e-20)
(-0.304868 0.0872664 1.21586e-19)
(-0.00862036 0.0320367 1.58484e-20)
(-0.0285903 0.0697124 6.58437e-20)
(-0.0575628 0.0917082 -1.40885e-19)
(-0.0895385 0.10357 1.66008e-19)
(-0.122598 0.10912 1.1172e-19)
(-0.155131 0.111183 -4.21862e-19)
(-0.185837 0.111484 3.68323e-19)
(-0.213841 0.110859 2.28576e-19)
(-0.237814 0.109514 8.02408e-20)
(-0.254969 0.107457 -2.78088e-20)
(-0.00996727 0.0362288 -1.14753e-19)
(-0.0296801 0.0799665 -5.10746e-20)
(-0.0554467 0.106339 4.40674e-20)
(-0.0829377 0.120993 -3.70153e-19)
(-0.110572 0.128044 1.82777e-19)
(-0.13679 0.130667 -4.78101e-20)
(-0.160146 0.130886 3.70455e-21)
(-0.179567 0.129758 4.54611e-20)
(-0.193733 0.127725 -1.00729e-19)
(-0.197733 0.124466 -5.72191e-20)
(-0.0112971 0.0390087 2.54338e-19)
(-0.0307665 0.0875467 -2.85264e-20)
(-0.0531522 0.117885 1.75956e-19)
(-0.075789 0.135305 6.02515e-20)
(-0.0974617 0.143951 -5.21915e-20)
(-0.116719 0.147196 -4.3043e-20)
(-0.132019 0.147298 -2.90306e-20)
(-0.14207 0.145517 -8.31904e-20)
(-0.146034 0.142645 4.99152e-20)
(-0.13578 0.138015 3.8914e-19)
(-0.0125097 0.0403872 -2.71467e-19)
(-0.0317667 0.0923533 1.75166e-19)
(-0.0507877 0.126106 -3.23004e-19)
(-0.0684355 0.14616 3.75649e-20)
(-0.083861 0.156445 9.31337e-20)
(-0.0957793 0.160369 3.46554e-19)
(-0.102638 0.160343 -1.648e-19)
(-0.102858 0.157795 2.86642e-19)
(-0.0966851 0.153813 -1.99083e-19)
(-0.0718777 0.14817 -2.6565e-19)
(-0.0135245 0.0404612 2.26278e-19)
(-0.0326129 0.094438 -1.07563e-19)
(-0.0484625 0.130904 -2.66209e-19)
(-0.0612179 0.153322 2.43294e-20)
(-0.0703653 0.165207 -4.63351e-19)
(-0.0748336 0.169839 -2.8898e-20)
(-0.0731822 0.169703 2.23242e-20)
(-0.0635196 0.166427 -1.43083e-19)
(-0.0473248 0.160702 3.38781e-19)
(-0.00876587 0.154636 1.40011e-19)
(-0.0142903 0.0394067 -1.77331e-19)
(-0.0332601 0.093997 -2.71431e-19)
(-0.0462808 0.132335 6.85802e-19)
(-0.0544516 0.15669 2.53183e-19)
(-0.0575325 0.170014 8.15313e-20)
(-0.0546908 0.175329 1.79956e-19)
(-0.0446794 0.175097 -2.07781e-19)
(-0.0255472 0.171074 3.30782e-20)
(0.000223121 0.16337 -5.54341e-19)
(0.0521288 0.156647 5.65343e-20)
(-0.014793 0.0374542 4.79679e-20)
(-0.033697 0.0913472 1.32713e-19)
(-0.044337 0.130607 -8.98902e-19)
(-0.0483995 0.156308 -1.25434e-19)
(-0.0458373 0.170765 1.24973e-19)
(-0.0360603 0.176642 -5.89029e-19)
(-0.0180928 0.176272 -1.84511e-20)
(0.0100854 0.171469 -1.3738e-20)
(0.0444282 0.161993 -1.96655e-19)
(0.109586 0.1537 3.39244e-20)
(-0.0150536 0.0348636 -4.8893e-20)
(-0.0339454 0.0869011 2.37731e-19)
(-0.0427076 0.126074 5.95653e-19)
(-0.0432465 0.152381 -2.87682e-19)
(-0.0356161 0.167512 2.2413e-20)
(-0.0194478 0.173719 -2.1949e-19)
(0.00591358 0.173126 -5.67534e-20)
(0.0426351 0.167646 5.51272e-19)
(0.0846331 0.156328 4.64705e-19)
(0.163224 0.145802 -6.02715e-20)
(-0.0151265 0.0319045 5.25015e-20)
(-0.0340574 0.0811303 1.00666e-19)
(-0.0414389 0.119202 -5.30764e-19)
(-0.0390677 0.145275 2.09157e-19)
(-0.0270044 0.160485 2.21386e-19)
(-0.00505212 0.166675 7.74194e-19)
(0.0271351 0.165717 4.20759e-19)
(0.0719615 0.159716 -2.19541e-19)
(0.121135 0.146427 -6.05611e-20)
(0.214386 0.133364 -2.9911e-19)
(-0.0150921 0.0288329 3.56064e-19)
(-0.0341053 0.0745238 -5.21175e-19)
(-0.0405312 0.110541 7.87276e-19)
(-0.0357947 0.1355 -2.74366e-19)
(-0.0198716 0.150109 -2.73129e-19)
(0.00734689 0.15585 -8.59176e-19)
(0.0460008 0.154333 -5.68298e-19)
(0.0988188 0.148008 3.1827e-19)
(0.155589 0.13265 4.91168e-19)
(0.266348 0.11759 5.27845e-19)
(-0.0150445 0.0258709 -3.10586e-19)
(-0.0341616 0.0675468 -1.27985e-19)
(-0.0399179 0.100681 1.71596e-20)
(-0.0331829 0.123681 3.35753e-20)
(-0.0137609 0.136997 7.07364e-19)
(0.0184937 0.141829 2.94556e-20)
(0.0637349 0.13957 5.50087e-19)
(0.125049 0.133167 -4.96552e-19)
(0.191373 0.115698 -9.97619e-19)
(0.323707 0.100569 -5.05757e-19)
(-0.0150763 0.0231903 1.12894e-19)
(-0.034275 0.0606037 7.98776e-19)
(-0.0394405 0.0902031 1.20077e-20)
(-0.0307854 0.110519 -4.21229e-19)
(-0.00784984 0.121923 2.57429e-19)
(0.0297182 0.125447 -4.37783e-19)
(0.082424 0.122362 -8.96661e-20)
(0.153578 0.116166 2.35536e-19)
(0.233487 0.0968156 3.043e-19)
(0.390672 0.084911 2.42869e-19)
(-0.0152622 0.0209024 2.53735e-19)
(-0.0344433 0.0540095 -3.92816e-19)
(-0.038829 0.0796345 -3.57114e-19)
(-0.0279427 0.0967282 -4.78506e-20)
(-0.000954529 0.105765 2.40827e-19)
(0.0429035 0.107734 8.23067e-19)
(0.104895 0.103942 6.77442e-19)
(0.188123 0.0982064 9.77634e-20)
(0.287673 0.0780921 8.55035e-19)
(0.468656 0.0730899 4.00782e-19)
(-0.0156428 0.0190519 1.12228e-19)
(-0.0345918 0.0479693 7.13941e-19)
(-0.0376929 0.0694097 1.76776e-19)
(-0.0238022 0.0829798 7.05974e-19)
(0.00840232 0.0894236 -2.61895e-19)
(0.0603217 0.0898224 -8.06633e-19)
(0.13433 0.0857343 -4.08837e-19)
(0.232624 0.0805657 -4.66668e-19)
(0.358664 0.0625029 -1.03642e-18)
(0.554658 0.0666148 -1.35631e-19)
(-0.0162128 0.0176183 -5.48167e-19)
(-0.0345609 0.0425719 3.39699e-19)
(-0.0355321 0.0598392 -4.76838e-19)
(-0.0173739 0.0698399 -3.08931e-19)
(0.0218527 0.0737336 -1.24035e-19)
(0.0843542 0.0728229 -2.94453e-20)
(0.173709 0.0691221 1.25887e-19)
(0.290505 0.0645321 2.07148e-19)
(0.447971 0.0531966 3.61527e-19)
(0.64259 0.0647145 -6.28163e-19)
(-0.0169137 0.0165234 1.77769e-20)
(-0.0341092 0.0377966 -3.36989e-19)
(-0.0317687 0.0510946 2.471e-19)
(-0.00761919 0.057725 4.01564e-19)
(0.0409902 0.0593768 -2.63819e-19)
(0.117116 0.0576825 6.34089e-19)
(0.225182 0.0552353 -2.15293e-19)
(0.363784 0.0516039 -1.09752e-19)
(0.551992 0.0516864 1.74213e-20)
(0.727731 0.0623583 2.11983e-19)
(-0.0176357 0.0156501 -4.22873e-20)
(-0.032927 0.0335332 3.96281e-19)
(-0.0257918 0.0432123 -4.04894e-20)
(0.00645057 0.0468828 -2.96093e-19)
(0.0671798 0.0468388 2.36317e-19)
(0.160137 0.0451209 -2.11081e-19)
(0.289645 0.0448696 8.86643e-19)
(0.452075 0.0435521 -2.38195e-19)
(0.661886 0.0555985 4.95739e-19)
(0.8116 0.0529636 -2.37117e-19)
(-0.0182374 0.0148693 -2.53035e-19)
(-0.0306544 0.0296067 3.58043e-19)
(-0.0170015 0.0361165 -2.07375e-19)
(0.0256913 0.037407 2.88689e-19)
(0.101421 0.0364108 -5.14758e-19)
(0.21417 0.0356206 -6.82234e-19)
(0.366684 0.0385099 -6.76882e-19)
(0.552079 0.0416064 9.49022e-20)
(0.767998 0.0596332 3.43729e-19)
(0.930578 0.0519594 -8.6634e-20)
(-0.0185628 0.0140501 4.66798e-19)
(-0.0269139 0.0258122 -5.04518e-19)
(-0.00484148 0.0296685 -1.14941e-19)
(0.0507794 0.0292867 -5.39855e-19)
(0.144292 0.0282418 9.65177e-19)
(0.279122 0.0294772 7.25386e-19)
(0.454608 0.0364448 1.43439e-19)
(0.658146 0.0452525 -2.57512e-21)
(0.872377 0.0659565 -9.38458e-20)
(1.03633 0.0631292 1.31712e-18)
(-0.0184431 0.0130745 -9.5718e-20)
(-0.0213353 0.0219646 1.7482e-20)
(0.0111807 0.023722 -2.75387e-19)
(0.082202 0.0224761 -8.98548e-20)
(0.195952 0.0224216 3.9458e-19)
(0.354103 0.0268752 -8.33034e-19)
(0.550508 0.0387548 3.4986e-19)
(0.76481 0.0533255 1.6074e-19)
(0.970199 0.0757739 -1.12923e-18)
(1.12074 0.0762348 -1.97763e-19)
(-0.0177092 0.0118589 5.254e-19)
(-0.0135636 0.0179345 -2.82642e-19)
(0.0314904 0.0181785 2.86047e-19)
(0.120268 0.0169695 1.00779e-19)
(0.256169 0.0190637 -1.47282e-19)
(0.437497 0.0279321 -7.19903e-20)
(0.650593 0.0452354 -3.59644e-19)
(0.867222 0.0647698 3.87776e-19)
(1.05676 0.0878315 2.97766e-20)
(1.18892 0.0899483 -2.00625e-19)
(-0.016203 0.010364 -2.80643e-19)
(-0.00326338 0.0136709 6.7841e-19)
(0.0564491 0.0130326 -1.90833e-19)
(0.165118 0.0128616 4.82834e-20)
(0.324321 0.0183543 8.86879e-19)
(0.527046 0.0326861 -3.94e-19)
(0.750771 0.055406 -3.58144e-19)
(0.961435 0.0785975 1.34236e-19)
(1.13033 0.101134 1.1985e-19)
(1.24051 0.10361 -1.04682e-19)
(-0.0137799 0.00859394 1.23599e-19)
(0.00987525 0.00921437 6.13551e-20)
(0.0863512 0.00839926 8.05455e-20)
(0.216709 0.0103755 -1.33325e-19)
(0.399371 0.0205435 -1.57827e-19)
(0.619994 0.0410462 -6.09546e-19)
(0.847222 0.0686007 8.23921e-20)
(1.04491 0.0939512 1.04598e-19)
(1.1904 0.114953 1.85501e-19)
(1.27855 0.11671 5.31972e-19)
(-0.0103074 0.00659044 -1.03008e-19)
(0.0261304 0.0046967 -8.48964e-19)
(0.121407 0.0045173 5.82144e-19)
(0.274774 0.00985339 2.6754e-19)
(0.479844 0.0258799 -4.19002e-19)
(0.713347 0.0527536 -6.31666e-20)
(0.936865 0.0840966 4.8173e-19)
(1.11645 0.110143 8.03994e-19)
(1.23782 0.128798 2.1938e-20)
(1.30531 0.129219 -2.0976e-19)
(-0.00566293 0.00442623 -1.53614e-19)
(0.045739 0.000330713 3.04943e-19)
(0.161712 0.00173279 -7.5181e-19)
(0.338767 0.011709 -2.7101e-19)
(0.563861 0.0345208 2.8359e-19)
(0.804201 0.0673975 1.55967e-19)
(1.01759 0.101217 -5.50302e-19)
(1.17593 0.126669 -3.88817e-19)
(1.27397 0.142404 -4.89434e-19)
(1.32322 0.141132 2.88392e-19)
(0.000266442 0.00219812 5.87681e-20)
(0.0688824 -0.00360544 5.51233e-19)
(0.207207 0.000467693 2.77028e-19)
(0.407814 0.0163558 3.00642e-19)
(0.649265 0.0464659 -1.05166e-19)
(0.890069 0.0844787 5.04226e-19)
(1.08826 0.119393 -4.31587e-20)
(1.22401 0.143193 2.81579e-19)
(1.30053 0.15565 5.4218e-19)
(1.3343 0.152574 -2.48111e-19)
(0.0075817 2.17172e-05 -1.68202e-19)
(0.0956686 -0.00678599 -3.34409e-19)
(0.25764 0.00117989 -2.16515e-19)
(0.480712 0.0241302 2.13772e-19)
(0.733831 0.0615466 4.37933e-20)
(0.969074 0.103484 -4.29803e-19)
(1.14856 0.138181 9.94734e-20)
(1.26179 0.159515 1.22259e-19)
(1.31918 0.168524 7.50067e-20)
(1.34022 0.163669 9.27818e-20)
(0.0163667 -0.00197215 1.13892e-19)
(0.126112 -0.00885484 3.03425e-19)
(0.312539 0.00431989 2.98884e-19)
(0.555988 0.0352344 -3.72385e-19)
(0.81549 0.0794642 -2.66732e-19)
(1.04001 0.123943 1.60813e-19)
(1.19878 0.157259 2.62396e-19)
(1.29057 0.17554 -6.6523e-20)
(1.33145 0.181074 -2.7448e-19)
(1.34229 0.174554 -7.37197e-20)
(0.0266814 -0.00364036 7.31974e-20)
(0.160119 -0.00944232 -1.50176e-20)
(0.371205 0.0102887 -1.37586e-19)
(0.632015 0.0497132 -2.1077e-20)
(0.892505 0.0998484 -2.23228e-20)
(1.10227 0.145452 2.02583e-19)
(1.23958 0.176412 -3.23398e-19)
(1.31167 0.191245 -2.0181e-19)
(1.33866 0.193381 -6.56337e-21)
(1.34149 0.185341 1.35619e-19)
(0.0385545 -0.00482999 3.42968e-19)
(0.197468 -0.00818152 -6.53656e-20)
(0.432732 0.0194017 -1.08683e-19)
(0.707142 0.0674658 -1.72205e-20)
(0.963562 0.122309 -5.0673e-20)
(1.15574 0.167686 -2.21777e-19)
(1.27185 0.195503 1.38603e-19)
(1.32634 0.206653 -1.90595e-19)
(1.34188 0.205532 1.23143e-19)
(1.33853 0.196119 3.41035e-19)
(0.0519765 -0.00538142 -1.48224e-19)
(0.237813 -0.0047254 -3.10517e-19)
(0.496048 0.0318642 -3.90002e-20)
(0.779836 0.088279 3.73974e-19)
(1.02778 0.146468 1.17736e-19)
(1.20067 0.190387 2.55644e-19)
(1.29655 0.214457 4.17984e-19)
(1.33567 0.221811 9.22045e-20)
(1.34196 0.217609 9.44639e-20)
(1.33392 0.206944 -2.51701e-19)
(0.0668939 -0.00513244 1.31128e-20)
(0.280678 0.00123541 2.12471e-19)
(0.559985 0.0477606 2.21797e-19)
(0.848766 0.111866 -2.39923e-19)
(1.08465 0.17198 3.00406e-19)
(1.23752 0.213359 -2.6007e-19)
(1.31465 0.233239 -5.70607e-20)
(1.34062 0.236775 -8.62715e-20)
(1.33956 0.229675 -9.0534e-20)
(1.32799 0.21785 -1.31684e-19)
(0.0832062 -0.00392349 -1.40616e-20)
(0.325473 0.00995498 -2.16546e-20)
(0.623349 0.0670577 -1.60115e-20)
(0.912862 0.137895 -1.30367e-20)
(1.134 0.198532 6.15277e-20)
(1.26689 0.236451 6.83278e-20)
(1.32702 0.251836 -7.14578e-20)
(1.34193 0.251595 -5.10406e-20)
(1.33514 0.241775 -5.62829e-20)
(1.32097 0.228841 1.71809e-19)
(0.100764 -0.00160393 -2.21407e-20)
(0.371511 0.0216168 5.74455e-20)
(0.684985 0.0896177 9.11925e-20)
(0.971321 0.166019 -2.8258e-20)
(1.17588 0.225848 -2.0321e-19)
(1.28943 0.259546 -1.57419e-19)
(1.33445 0.270247 -5.9256e-21)
(1.34024 0.266307 1.18158e-19)
(1.32905 0.253929 -1.84162e-20)
(1.31298 0.239901 -4.76569e-20)
(0.119373 0.00196124 -5.87148e-20)
(0.418041 0.0363225 3.15966e-20)
(0.743836 0.115216 -3.41891e-20)
(1.02359 0.195881 7.49512e-21)
(1.21049 0.253678 2.46443e-20)
(1.30579 0.282549 3.44982e-20)
(1.33761 0.28847 -6.08425e-21)
(1.33599 0.280934 -7.03343e-20)
(1.32154 0.266134 4.16873e-21)
(1.30412 0.250998 2.31308e-20)
(0.138795 0.00688447 -1.94733e-20)
(0.464273 0.0540858 -1.12497e-22)
(0.798978 0.143558 4.93632e-21)
(1.06933 0.227129 -4.7584e-21)
(1.23816 0.2818 3.26806e-20)
(1.31658 0.305375 1.09218e-20)
(1.33708 0.306493 6.07856e-21)
(1.32957 0.295473 -2.34806e-21)
(1.31274 0.278364 -1.00985e-20)
(1.29443 0.26208 -2.1609e-20)
(0.158755 0.0132494 -9.197e-21)
(0.509416 0.0748318 -2.80045e-20)
(0.849644 0.174301 2.10794e-20)
(1.1084 0.259416 -2.09589e-21)
(1.25928 0.310005 1.96922e-20)
(1.32236 0.327947 1.76467e-20)
(1.33332 0.324295 1.37538e-20)
(1.32122 0.309905 -1.08179e-20)
(1.30276 0.290571 -1.09727e-20)
(1.28393 0.273088 -1.75987e-20)
(0.17895 0.0211057 -3.23865e-20)
(0.552703 0.0984014 -3.22616e-20)
(0.895223 0.207063 -2.05302e-20)
(1.14076 0.292403 -1.95895e-20)
(1.27425 0.338101 4.07894e-20)
(1.32364 0.350182 5.73446e-20)
(1.32669 0.341836 -7.36211e-21)
(1.31115 0.324187 -5.31028e-20)
(1.29168 0.302692 -8.5983e-21)
(1.27265 0.283953 -7.77403e-21)
(0.199059 0.0304652 -3.68289e-20)
(0.593424 0.124559 1.77656e-20)
(0.935262 0.241436 4.90612e-20)
(1.1665 0.325759 1.80538e-20)
(1.28349 0.365901 -2.52789e-19)
(1.32087 0.371995 -3.08477e-20)
(1.3175 0.359063 -3.24375e-20)
(1.29948 0.338258 9.32216e-20)
(1.27952 0.314644 -3.51171e-20)
(1.26058 0.294601 -1.6472e-20)
(0.21875 0.0412999 3.66285e-20)
(0.630939 0.153001 -8.25815e-20)
(0.969446 0.277 -1.51206e-19)
(1.18581 0.359164 4.32049e-20)
(1.2874 0.393223 1.19887e-19)
(1.31441 0.393291 2.36678e-20)
(1.30598 0.375904 1.72889e-20)
(1.28631 0.352037 -3.65754e-20)
(1.26631 0.326329 -4.53973e-20)
(1.24771 0.304952 1.08018e-19)
(0.237694 0.0535421 7.86032e-20)
(0.664697 0.18337 3.52647e-19)
(0.997588 0.313323 5.49817e-20)
(1.1989 0.392304 -2.16638e-19)
(1.28637 0.419889 1.13963e-19)
(1.3046 0.413966 -1.59614e-20)
(1.29232 0.392275 -1.8207e-19)
(1.27171 0.365432 1.43678e-20)
(1.25202 0.337644 -3.90462e-20)
(1.23395 0.314927 -8.21451e-20)
(0.255568 0.0670853 -3.27868e-19)
(0.694242 0.215264 -3.73076e-19)
(1.01961 0.349973 -6.14845e-20)
(1.20604 0.424877 5.3783e-19)
(1.28078 0.445718 -2.24574e-20)
(1.29172 0.433906 3.1651e-19)
(1.27667 0.408082 2.04804e-19)
(1.25573 0.378358 1.6322e-19)
(1.23664 0.348515 2.95909e-20)
(1.2191 0.324442 -9.52753e-20)
(0.272071 0.0817874 3.07803e-19)
(0.719218 0.248247 -3.09324e-19)
(1.03554 0.386519 1.91359e-19)
(1.20752 0.456586 -1.99416e-19)
(1.27096 0.470531 4.71445e-20)
(1.27603 0.452989 -2.28416e-19)
(1.25916 0.423216 1.56758e-20)
(1.23843 0.390727 -2.24247e-20)
(1.22019 0.358941 3.19816e-20)
(1.20307 0.333384 1.61735e-19)
(0.286927 0.0974744 2.44226e-20)
(0.739375 0.281866 9.65948e-20)
(1.04545 0.422539 -1.38323e-19)
(1.20367 0.48715 -5.35579e-20)
(1.25724 0.494149 -9.82684e-20)
(1.25775 0.471082 2.05456e-19)
(1.2399 0.437553 -2.52748e-19)
(1.21987 0.402421 -8.19772e-20)
(1.20274 0.368926 3.54482e-20)
(1.18629 0.341674 -5.05874e-20)
(0.299896 0.113944 4.34787e-20)
(0.754554 0.315657 1.65365e-19)
(1.04952 0.457623 6.10757e-19)
(1.1948 0.516291 -4.46329e-19)
(1.23992 0.516392 -1.96726e-19)
(1.23707 0.488049 -9.48826e-20)
(1.219 0.450963 2.41694e-19)
(1.20011 0.413292 7.83877e-20)
(1.18425 0.378218 -1.27609e-19)
(1.169 0.349366 -4.82412e-20)
(0.310773 0.130972 -1.24679e-19)
(0.764687 0.349161 -2.75298e-19)
(1.04795 0.491374 -4.53618e-19)
(1.18126 0.543746 3.51385e-19)
(1.21931 0.537085 8.33619e-21)
(1.21418 0.503747 -2.25534e-19)
(1.19659 0.463319 9.47778e-20)
(1.1792 0.423275 -8.57593e-21)
(1.16471 0.386658 5.4068e-20)
(1.15107 0.356286 -1.31431e-20)
(0.319397 0.148317 -6.82132e-20)
(0.769786 0.381926 4.59194e-19)
(1.041 0.523418 5.24658e-19)
(1.16337 0.569261 1.1888e-19)
(1.19567 0.556051 -8.58969e-20)
(1.18927 0.518027 4.51361e-19)
(1.17278 0.474487 -1.47084e-19)
(1.15717 0.432247 5.56911e-20)
(1.14428 0.394161 1.86713e-19)
(1.13244 0.362321 3.48496e-20)
(0.32565 0.165727 -2.7423e-19)
(0.769937 0.413516 1.3803e-19)
(1.029 0.553404 -4.2025e-19)
(1.14151 0.592603 -1.81094e-19)
(1.16927 0.57311 1.01505e-19)
(1.16252 0.530742 4.82625e-21)
(1.14765 0.48434 -2.54696e-19)
(1.1341 0.440092 -1.29399e-19)
(1.123 0.400627 -1.16565e-19)
(1.11315 0.367384 -4.64592e-20)
(0.329459 0.182947 -2.01188e-19)
(0.765302 0.443509 -5.27567e-19)
(1.01231 0.581016 3.96377e-19)
(1.116 0.613558 1.1981e-21)
(1.14035 0.588088 7.71415e-20)
(1.13411 0.541735 -1.98821e-19)
(1.12132 0.492747 2.31977e-19)
(1.11008 0.446697 1.48581e-19)
(1.10094 0.405959 3.56056e-20)
(1.09326 0.371407 -1.05356e-20)
(0.330798 0.199718 2.14692e-19)
(0.75612 0.4715 4.44069e-20)
(0.991288 0.605957 -3.35337e-19)
(1.08706 0.631891 7.28621e-20)
(1.10922 0.600849 -1.06009e-19)
(1.10421 0.55086 -1.4044e-19)
(1.09391 0.499585 1.79279e-20)
(1.08521 0.451953 -1.88955e-19)
(1.0782 0.410057 -3.58462e-21)
(1.07287 0.37431 8.31784e-20)
(0.329702 0.215794 -1.96934e-19)
(0.742696 0.497141 6.64741e-19)
(0.966122 0.627921 -3.56129e-19)
(1.0551 0.647424 3.14955e-19)
(1.07617 0.611201 2.71403e-19)
(1.07301 0.558008 -3.87378e-20)
(1.06555 0.504741 -1.16955e-19)
(1.05959 0.455761 1.04008e-20)
(1.05486 0.412818 2.93704e-20)
(1.05206 0.375998 -1.38845e-20)
(0.326255 0.230924 1.14089e-19)
(0.725336 0.520221 -1.86398e-19)
(0.937027 0.646554 4.01437e-19)
(1.0206 0.659977 -1.20453e-19)
(1.04145 0.619018 -1.26924e-19)
(1.04069 0.563053 2.47777e-19)
(1.0364 0.508111 -3.99772e-20)
(1.03334 0.458032 2.02334e-20)
(1.031 0.414148 -1.61602e-20)
(1.03092 0.376374 7.40388e-21)
(0.320532 0.24479 -1.65017e-19)
(0.704203 0.540459 -5.63042e-20)
(0.904647 0.661825 -7.80269e-20)
(0.983961 0.669308 -1.47175e-20)
(1.00533 0.624199 -2.31732e-19)
(1.00745 0.56589 -1.33834e-19)
(1.0066 0.5096 3.16025e-20)
(1.00657 0.458689 -9.34387e-21)
(1.00678 0.413981 6.99464e-20)
(1.00973 0.375401 4.8251e-20)
(0.312553 0.257111 1.92918e-19)
(0.679529 0.557382 -2.70745e-19)
(0.86957 0.673584 -1.12773e-20)
(0.945485 0.675351 -1.99382e-19)
(0.968061 0.626635 1.47063e-19)
(0.97348 0.566418 6.97525e-20)
(0.976266 0.509108 -1.38356e-20)
(0.97937 0.457625 -1.56111e-20)
(0.982478 0.412237 -6.38583e-21)
(0.98923 0.373125 -1.06362e-19)
(0.302516 0.267672 -9.62622e-21)
(0.651777 0.57069 7.3438e-20)
(0.832143 0.681614 -1.17288e-19)
(0.905496 0.678036 8.20941e-20)
(0.929901 0.626245 -2.03257e-20)
(0.938956 0.564556 9.32599e-21)
(0.945512 0.506542 8.91448e-20)
(0.951858 0.454679 1.55997e-20)
(0.958485 0.408662 -5.45962e-20)
(0.970129 0.369511 -1.38514e-20)
(0.290669 0.276433 4.3946e-20)
(0.621407 0.580269 4.39126e-20)
(0.792764 0.685727 5.25348e-20)
(0.864339 0.677286 -1.96459e-20)
(0.891114 0.622966 3.9617e-20)
(0.904059 0.560254 1.50113e-20)
(0.914448 0.501854 -1.88657e-19)
(0.924192 0.44973 1.53695e-20)
(0.935065 0.402786 9.11349e-21)
(0.951523 0.363603 2.78387e-20)
(0.277156 0.283214 1.38103e-20)
(0.588868 0.58599 -6.26985e-20)
(0.75185 0.685816 8.01089e-21)
(0.822362 0.673041 1.14069e-20)
(0.851962 0.616759 2.28279e-20)
(0.868983 0.553486 -1.52844e-19)
(0.883259 0.495061 1.56322e-19)
(0.896615 0.442941 -1.50919e-19)
(0.912062 0.394866 1.65961e-19)
(0.930344 0.351467 -9.92335e-20)
(0.262189 0.287868 9.46566e-21)
(0.554597 0.587751 2.44437e-21)
(0.70983 0.681825 4.61687e-20)
(0.779913 0.665265 8.32323e-20)
(0.812711 0.607598 4.15579e-20)
(0.833947 0.544227 -9.01416e-21)
(0.852207 0.486141 -1.13114e-19)
(0.869352 0.43446 1.96837e-20)
(0.888388 0.387076 -1.73226e-19)
(0.906017 0.345345 2.20915e-19)
(0.246008 0.290287 3.19389e-20)
(0.519027 0.585477 -1.38157e-20)
(0.667125 0.673735 -1.40098e-19)
(0.737336 0.653949 -9.19761e-20)
(0.773626 0.595474 1.35484e-20)
(0.799177 0.532456 3.67412e-19)
(0.821507 0.475032 3.01185e-19)
(0.842485 0.423959 2.07824e-19)
(0.864708 0.377048 4.32985e-19)
(0.883242 0.335571 2.26481e-19)
(0.228866 0.29039 5.02335e-21)
(0.482584 0.579132 1.26072e-19)
(0.624152 0.661558 4.92731e-20)
(0.694969 0.639112 -6.53675e-20)
(0.734973 0.580403 8.00518e-20)
(0.764891 0.518189 -5.5052e-19)
(0.791301 0.461785 -2.97326e-19)
(0.815996 0.411684 -1.4925e-19)
(0.841115 0.365833 -2.61165e-19)
(0.861271 0.325563 -8.524e-20)
(0.21102 0.288126 -2.71752e-20)
(0.445696 0.568717 -2.97763e-19)
(0.581319 0.645336 3.32219e-20)
(0.653146 0.620797 1.45209e-19)
(0.697014 0.562417 -4.64734e-20)
(0.731307 0.501444 8.05584e-20)
(0.761764 0.446401 2.68105e-19)
(0.790066 0.397553 -1.17293e-19)
(0.817985 0.353003 -3.43222e-19)
(0.840205 0.314111 -1.45016e-20)
(0.192731 0.283472 7.14542e-20)
(0.408781 0.554272 7.61531e-20)
(0.539023 0.625143 1.69306e-19)
(0.612188 0.599072 -8.23359e-20)
(0.660007 0.541569 -3.53186e-19)
(0.698637 0.482266 -3.89557e-19)
(0.733063 0.428927 -1.4545e-19)
(0.764854 0.381647 4.23325e-19)
(0.795522 0.338705 3.40774e-19)
(0.820028 0.301369 3.80964e-19)
(0.174258 0.276435 -2.88636e-19)
(0.372249 0.535873 3.45205e-19)
(0.497647 0.601079 -2.59163e-19)
(0.572408 0.574029 -2.31494e-19)
(0.624203 0.517934 5.20414e-19)
(0.667083 0.460714 4.68895e-19)
(0.705367 0.409412 5.56527e-19)
(0.740523 0.363992 -1.89611e-19)
(0.773876 0.322911 -1.91108e-19)
(0.800769 0.287267 -5.53955e-19)
(0.155856 0.267045 2.15823e-19)
(0.336495 0.513628 -7.56458e-20)
(0.457558 0.573276 3.21099e-19)
(0.534106 0.545785 -2.97767e-19)
(0.589842 0.491606 -4.08482e-20)
(0.636846 0.436867 -8.20905e-19)
(0.678846 0.387923 -3.68778e-19)
(0.717229 0.344646 2.03874e-19)
(0.753181 0.305658 7.8093e-20)
(0.782486 0.271842 -6.44191e-21)
(0.137775 0.255361 1.14263e-19)
(0.3019 0.487681 -3.12122e-19)
(0.419108 0.54189 -4.23393e-19)
(0.497569 0.514476 2.51096e-20)
(0.557155 0.462698 4.09071e-19)
(0.608119 0.410818 -3.55007e-20)
(0.653665 0.36454 -1.38023e-19)
(0.695116 0.323674 -2.32837e-19)
(0.733553 0.286988 -4.35523e-19)
(0.765244 0.255139 1.19267e-20)
(0.120257 0.241467 4.62069e-20)
(0.268825 0.458206 -4.88796e-20)
(0.382628 0.507105 6.98689e-19)
(0.463067 0.480262 2.74378e-19)
(0.526364 0.431342 -9.09076e-20)
(0.581084 0.382679 6.12356e-19)
(0.629979 0.339359 -3.11246e-19)
(0.674321 0.301153 3.72258e-19)
(0.715105 0.266964 1.41367e-19)
(0.749117 0.237226 -2.35142e-19)
(0.103531 0.225469 1.59276e-19)
(0.237609 0.425405 2.2573e-19)
(0.348427 0.469128 -8.14746e-19)
(0.430853 0.443323 -1.2024e-19)
(0.497676 0.397689 -5.27705e-19)
(0.555917 0.352577 6.98611e-20)
(0.607939 0.312488 8.31326e-20)
(0.654969 0.277174 1.28563e-19)
(0.697943 0.24566 4.49282e-19)
(0.734176 0.21818 9.17549e-20)
(0.0878127 0.207497 -2.18558e-19)
(0.208569 0.389508 3.05901e-19)
(0.316796 0.428191 1.61292e-20)
(0.401166 0.403857 7.61066e-20)
(0.471284 0.361903 5.27292e-19)
(0.532781 0.320652 1.04028e-20)
(0.587684 0.284048 1.2657e-19)
(0.637183 0.25184 -6.12177e-20)
(0.682166 0.223166 -2.82661e-19)
(0.720493 0.19809 -8.28714e-20)
(0.0733039 0.187699 4.45585e-19)
(0.181995 0.350771 -3.37874e-19)
(0.287996 0.384545 4.22301e-19)
(0.37422 0.36208 -2.64396e-20)
(0.447368 0.324167 -9.29407e-21)
(0.51183 0.28706 -4.97846e-19)
(0.569346 0.254173 9.46292e-20)
(0.621073 0.225265 2.83174e-20)
(0.667872 0.19958 -1.11766e-19)
(0.708132 0.17705 4.8154e-19)
(0.0601874 0.166242 -4.96186e-19)
(0.15815 0.30947 2.69274e-19)
(0.262267 0.338459 -2.64859e-19)
(0.350213 0.318223 -1.56072e-19)
(0.426091 0.284676 -4.42784e-20)
(0.493201 0.251967 1.14018e-19)
(0.553044 0.223008 1.60858e-19)
(0.606747 0.197573 1.60375e-19)
(0.655151 0.175012 -2.73446e-19)
(0.697155 0.155163 -1.82051e-19)
(0.0486273 0.143311 1.34749e-19)
(0.137268 0.265902 -6.45999e-20)
(0.23982 0.290222 -4.29166e-20)
(0.329318 0.272532 4.90502e-19)
(0.407597 0.243635 -8.84383e-20)
(0.477022 0.215552 -9.69423e-20)
(0.538889 0.190706 1.79507e-19)
(0.594301 0.168899 -8.57679e-20)
(0.644089 0.14958 6.20668e-20)
(0.687622 0.132536 1.22312e-19)
(0.0387672 0.119105 1.20883e-19)
(0.119552 0.220382 -3.88411e-20)
(0.220838 0.240135 8.73551e-20)
(0.311687 0.225265 -2.70389e-19)
(0.392014 0.201264 6.09098e-20)
(0.463401 0.178 3.88205e-19)
(0.526981 0.157431 -2.3094e-19)
(0.583828 0.139385 -3.78481e-19)
(0.634768 0.123412 -1.13692e-19)
(0.679591 0.109281 4.66859e-21)
(0.0307288 0.0938355 3.90926e-20)
(0.105173 0.17324 -1.20029e-19)
(0.205475 0.188513 2.37463e-19)
(0.297447 0.176691 -8.47496e-20)
(0.379447 0.157788 1.37803e-19)
(0.452433 0.139504 -3.2224e-19)
(0.517405 0.123348 1.59049e-19)
(0.575413 0.109179 1.33967e-19)
(0.627272 0.0966431 2.04042e-19)
(0.673124 0.0855233 -1.77308e-19)
(0.0246108 0.0677243 -1.37782e-19)
(0.0942693 0.12482 6.5054e-20)
(0.193854 0.135682 -1.07493e-19)
(0.286696 0.127085 -1.4335e-19)
(0.36998 0.113439 -3.03581e-19)
(0.444191 0.100264 2.15978e-19)
(0.510232 0.0886281 -5.26424e-20)
(0.569129 0.0784297 1.59122e-19)
(0.621686 0.0694121 -1.38973e-19)
(0.668303 0.0613966 1.1662e-19)
(0.0204885 0.0410025 4.59783e-20)
(0.0869442 0.0754752 -1.48448e-20)
(0.186067 0.0819768 -1.70124e-20)
(0.279511 0.0767331 1.20791e-19)
(0.363672 0.0684572 6.18664e-20)
(0.438724 0.0604792 -6.11624e-20)
(0.505507 0.0534416 -8.63289e-21)
(0.565032 0.0472815 -1.66615e-19)
(0.61809 0.0418429 1.20111e-19)
(0.665243 0.0369977 3.59538e-20)
(0.0184122 0.0139077 -1.0773e-20)
(0.0832677 0.0255659 -2.37532e-20)
(0.182174 0.0277386 -1.32968e-20)
(0.275937 0.0259247 8.68993e-21)
(0.360558 0.0230851 4.81281e-20)
(0.436056 0.0203561 8.65223e-21)
(0.503246 0.0179582 2.95993e-20)
(0.563134 0.0158703 5.28034e-20)
(0.616515 0.0140353 -4.96762e-21)
(0.664026 0.012384 -5.14766e-20)
(0.0184078 -0.0133182 -2.00728e-20)
(0.0832741 -0.0245408 -2.85449e-20)
(0.182205 -0.0266865 4.74914e-21)
(0.275996 -0.0250453 -6.19881e-21)
(0.360649 -0.0224279 5.66028e-20)
(0.436185 -0.0198939 -1.83206e-21)
(0.503423 -0.0176433 3.12199e-20)
(0.563378 -0.0156549 4.97106e-20)
(0.61686 -0.0138754 7.44157e-21)
(0.664549 -0.012242 -5.9617e-20)
(0.0204757 -0.0404316 7.89607e-20)
(0.0869631 -0.0744762 1.58033e-20)
(0.186156 -0.08095 -4.51607e-20)
(0.27968 -0.075879 1.61146e-19)
(0.363933 -0.0678282 1.81968e-20)
(0.439092 -0.0600514 -2.68695e-20)
(0.506 -0.0531715 -9.70873e-21)
(0.565676 -0.0471298 -1.52584e-19)
(0.618922 -0.0417809 1.00948e-19)
(0.666308 -0.0370133 -1.47587e-20)
(0.0245912 -0.067189 -1.49866e-19)
(0.0942994 -0.123872 1.9053e-20)
(0.193995 -0.134704 -7.4967e-20)
(0.286963 -0.126278 -1.65155e-19)
(0.370386 -0.112861 -3.17386e-19)
(0.444749 -0.0998931 2.17784e-19)
(0.510954 -0.0884246 -9.51041e-22)
(0.570022 -0.0783567 1.45699e-19)
(0.622749 -0.0694425 -1.73584e-19)
(0.669516 -0.0615081 1.51342e-19)
(0.0307046 -0.0933505 -1.46703e-20)
(0.105214 -0.172363 1.02468e-20)
(0.205659 -0.187602 -8.14093e-20)
(0.29779 -0.175948 1.16709e-19)
(0.379963 -0.157274 8.59184e-20)
(0.453124 -0.139201 -3.75127e-19)
(0.518263 -0.123212 1.09749e-19)
(0.576415 -0.109171 2.88208e-19)
(0.628379 -0.0967282 8.81966e-20)
(0.674274 -0.0856668 -1.11301e-19)
(0.0387414 -0.118682 -2.55944e-20)
(0.119601 -0.219593 -1.05081e-19)
(0.221055 -0.239307 2.21924e-19)
(0.312087 -0.224599 -2.51549e-19)
(0.392602 -0.200822 -1.56488e-19)
(0.464166 -0.177764 5.665e-19)
(0.527893 -0.157353 -4.48827e-19)
(0.584838 -0.13942 -2.53757e-19)
(0.635809 -0.123518 -8.22815e-20)
(0.680592 -0.109418 2.35138e-20)
(0.0486033 -0.142956 1.84792e-19)
(0.137326 -0.265212 8.64385e-20)
(0.240059 -0.289488 -7.23125e-20)
(0.329753 -0.271947 5.42475e-19)
(0.408224 -0.243266 -2.46723e-19)
(0.477813 -0.215377 5.36346e-20)
(0.539795 -0.190674 3.6064e-21)
(0.595253 -0.168957 -4.17797e-20)
(0.645012 -0.149683 9.86509e-20)
(0.688454 -0.132647 5.23641e-20)
(0.0601685 -0.165959 -3.82774e-19)
(0.158216 -0.308887 4.32335e-20)
(0.262519 -0.337824 -2.48414e-19)
(0.350663 -0.317722 -9.2252e-20)
(0.426727 -0.284375 7.9794e-20)
(0.493982 -0.251844 4.11976e-20)
(0.553902 -0.223006 3.98259e-20)
(0.607605 -0.197637 9.62569e-20)
(0.655939 -0.175099 -4.31394e-20)
(0.697829 -0.155242 -3.25548e-19)
(0.0732935 -0.187488 3.92315e-19)
(0.182069 -0.350297 -2.33317e-19)
(0.288254 -0.384011 4.35113e-19)
(0.374672 -0.361662 -5.70052e-20)
(0.447993 -0.323931 -1.03685e-19)
(0.512573 -0.286979 -4.13953e-19)
(0.570132 -0.25419 1.78056e-19)
(0.621824 -0.225325 -2.78668e-19)
(0.668527 -0.199646 1.83259e-19)
(0.708668 -0.177097 2.23047e-19)
(0.0878138 -0.207355 -2.92565e-19)
(0.208652 -0.389142 1.46061e-19)
(0.317055 -0.427757 3.09895e-19)
(0.401607 -0.403519 -3.72771e-20)
(0.471881 -0.361724 5.51032e-19)
(0.533471 -0.320605 3.95664e-20)
(0.588387 -0.284075 -3.15651e-20)
(0.637824 -0.251891 1.44995e-19)
(0.682701 -0.223209 -2.94246e-19)
(0.720917 -0.198109 -1.16922e-19)
(0.103545 -0.225391 2.1429e-19)