/*--------------------------------*- C++ -*----------------------------------*\
  =========                 |
  \\      /  F ield         | OpenFOAM: The Open Source CFD Toolbox
   \\    /   O peration     | Website:  https://openfoam.org
    \\  /    A nd           | Version:  7
     \\/     M anipulation  |
\*---------------------------------------------------------------------------*/
FoamFile
{
    version     2.0;
    format      ascii;
    class       volScalarField;
    location    "10";
    object      p;
}
// * * * * * * * * * * * * * * * * * * * * * * * * * * * * * * * * * * * * * //

dimensions      [0 2 -2 0 0 0 0];

internalField   nonuniform List<scalar> 
6386
(
-0.386992
-0.396622
-0.406609
-0.416907
-0.404413
-0.427465
-0.413254
-0.438224
-0.422276
-0.409891
-0.44912
-0.43143
-0.417933
-0.404247
-0.460088
-0.440664
-0.426067
-0.411411
-0.471057
-0.449919
-0.434244
-0.418633
-0.403138
-0.481951
-0.459133
-0.442409
-0.425865
-0.40952
-0.39376
-0.49269
-0.468235
-0.4505
-0.43305
-0.415859
-0.399294
-0.38346
-0.503188
-0.477149
-0.458447
-0.440122
-0.422088
-0.404682
-0.387922
-0.371532
-0.513345
-0.485786
-0.466169
-0.447001
-0.42813
-0.409844
-0.392068
-0.374433
-0.356466
-0.523055
-0.49405
-0.473572
-0.4536
-0.433892
-0.414688
-0.395814
-0.376826
-0.357226
-0.345669
-0.532197
-0.501832
-0.480556
-0.459815
-0.439274
-0.419111
-0.399062
-0.378635
-0.357351
-0.342587
-0.54064
-0.509014
-0.487006
-0.465536
-0.444162
-0.423
-0.40171
-0.379772
-0.356777
-0.338941
-0.548241
-0.515466
-0.492798
-0.470638
-0.448432
-0.426235
-0.403642
-0.380145
-0.355432
-0.334692
-0.554844
-0.521049
-0.497797
-0.47499
-0.451952
-0.428685
-0.404741
-0.37965
-0.353234
-0.329781
-0.560287
-0.525616
-0.501862
-0.478449
-0.454581
-0.430214
-0.404881
-0.378184
-0.350098
-0.324136
-0.564399
-0.529012
-0.504843
-0.480867
-0.456174
-0.430683
-0.403938
-0.37564
-0.345934
-0.31768
-0.567004
-0.531078
-0.506584
-0.482091
-0.45658
-0.429951
-0.401784
-0.37191
-0.340658
-0.310331
-0.567926
-0.531651
-0.506927
-0.481966
-0.455648
-0.427876
-0.398295
-0.366894
-0.334187
-0.302012
-0.566987
-0.530568
-0.505713
-0.480333
-0.453228
-0.424322
-0.393354
-0.360494
-0.326444
-0.29265
-0.564013
-0.527668
-0.502782
-0.47704
-0.449175
-0.419156
-0.386849
-0.352625
-0.317364
-0.282182
-0.558839
-0.522794
-0.497983
-0.471937
-0.443349
-0.412257
-0.378682
-0.343208
-0.306889
-0.270553
-0.551308
-0.515798
-0.491168
-0.464883
-0.43562
-0.403514
-0.368763
-0.33218
-0.294974
-0.257721
-0.541276
-0.50654
-0.482202
-0.455748
-0.425872
-0.392831
-0.357021
-0.31949
-0.281587
-0.243654
-0.528616
-0.494897
-0.47096
-0.444417
-0.414003
-0.380125
-0.343398
-0.305105
-0.26671
-0.228335
-0.513219
-0.480761
-0.457337
-0.430789
-0.399931
-0.365337
-0.327855
-0.289003
-0.250337
-0.211756
-0.495001
-0.464041
-0.441245
-0.414786
-0.383591
-0.348423
-0.310373
-0.271182
-0.232478
-0.193926
-0.473898
-0.444672
-0.422616
-0.396349
-0.364941
-0.329362
-0.290949
-0.251654
-0.213156
-0.174869
-0.449875
-0.422609
-0.401408
-0.375444
-0.343965
-0.308156
-0.2696
-0.230446
-0.192402
-0.154606
-0.422925
-0.397835
-0.377603
-0.352063
-0.320668
-0.284829
-0.246366
-0.207604
-0.170256
-0.133092
-0.393069
-0.37036
-0.35121
-0.326224
-0.295084
-0.259428
-0.221306
-0.183202
-0.146811
-0.110247
-0.360361
-0.340222
-0.322267
-0.297971
-0.267268
-0.232023
-0.194498
-0.157331
-0.122228
-0.086503
-0.324883
-0.307489
-0.290841
-0.267378
-0.237306
-0.202706
-0.16604
-0.130047
-0.0961962
-0.0621839
-0.286751
-0.272257
-0.257025
-0.234545
-0.205305
-0.171593
-0.136046
-0.101482
-0.0691532
-0.0369154
-0.246107
-0.234653
-0.220943
-0.1996
-0.171398
-0.138817
-0.104648
-0.0717548
-0.0411961
-0.0108308
-0.203127
-0.194829
-0.182747
-0.162698
-0.135735
-0.104535
-0.0719975
-0.0410017
-0.0124231
0.0159062
-0.158009
-0.152969
-0.142613
-0.124001
-0.0985067
-0.068922
-0.0382588
-0.00937612
0.0170345
0.0431324
-0.110961
-0.109291
-0.100735
-0.0837264
-0.059899
-0.0321648
-0.00361179
0.022959
0.047036
0.0706587
-0.0622439
-0.0640213
-0.0573483
-0.0420873
-0.0201246
0.00553368
0.0317526
0.055841
0.0774501
0.0981887
-0.0121712
-0.0173828
-0.0126919
0.00068006
0.0205891
0.0439592
0.0676365
0.0891169
0.108126
0.125186
0.0389999
0.0303307
0.032971
0.0443238
0.0620039
0.0828897
0.103842
0.122629
0.138762
0.150911
0.0909649
0.0788302
0.079364
0.08858
0.103873
0.122103
0.140184
0.15618
0.168767
0.174599
0.1434
0.127816
0.126198
0.133175
0.145945
0.16138
0.176497
0.189561
0.197552
0.197391
0.195975
0.176977
0.173175
0.177827
0.187962
0.200498
0.212575
0.222681
0.22768
0.225872
0.24835
0.225995
0.21999
0.222248
0.229658
0.239212
0.24818
0.255212
0.257449
0.254178
0.300184
0.274544
0.266332
0.266151
0.270769
0.27728
0.283091
0.286967
0.286352
0.28131
0.351134
0.322302
0.311894
0.309246
0.311034
0.314469
0.317099
0.317801
0.314318
0.307259
0.40086
0.368944
0.356368
0.351251
0.350198
0.350553
0.35001
0.347556
0.341236
0.332013
0.449028
0.414153
0.399453
0.391887
0.388011
0.385315
0.381638
0.376078
0.366978
0.355523
0.495311
0.457618
0.440855
0.430887
0.424236
0.418547
0.411807
0.403225
0.391424
0.377723
0.539396
0.499039
0.480292
0.46799
0.458643
0.450052
0.440352
0.42886
0.414467
0.39855
0.580981
0.538128
0.517491
0.50295
0.491014
0.479644
0.467117
0.452856
0.436003
0.417937
0.619781
0.574613
0.552198
0.535535
0.521145
0.507146
0.491955
0.475093
0.455935
0.435819
0.655527
0.608238
0.584172
0.565527
0.548846
0.532398
0.514729
0.495458
0.474171
0.452132
0.687973
0.638766
0.613191
0.592726
0.57394
0.555247
0.535313
0.513847
0.490623
0.466814
0.716893
0.665983
0.639054
0.61695
0.596269
0.575559
0.553595
0.530164
0.505211
0.479806
0.742086
0.689696
0.66158
0.638036
0.615692
0.593212
0.56947
0.544325
0.517864
0.491055
0.763375
0.709735
0.680612
0.655842
0.632083
0.608101
0.582852
0.556255
0.528519
0.500512
0.780609
0.725959
0.696017
0.670249
0.645338
0.620135
0.593662
0.565889
0.53712
0.508132
0.793667
0.73825
0.707685
0.681158
0.655372
0.629242
0.601841
0.573177
0.543622
0.51388
0.802456
0.74652
0.715535
0.688496
0.662119
0.635365
0.607341
0.578078
0.547995
0.517743
0.806912
0.750709
0.719509
0.69221
0.665535
0.638466
0.610128
0.580565
0.550228
0.519756
0.807002
0.750785
0.719579
0.692275
0.665596
0.638524
0.610182
0.580618
0.550289
0.519848
0.802723
0.746746
0.715743
0.68869
0.662301
0.635536
0.607502
0.578231
0.548155
0.517942
0.794104
0.73862
0.708026
0.681476
0.655668
0.629518
0.602099
0.573417
0.54385
0.514106
0.781203
0.726464
0.696482
0.670681
0.64574
0.620507
0.594005
0.566202
0.5374
0.508375
0.764111
0.710363
0.68119
0.656378
0.632579
0.608557
0.583266
0.556625
0.528841
0.500771
0.742947
0.690432
0.662256
0.638662
0.616269
0.593739
0.569943
0.54474
0.518217
0.491327
0.717858
0.66681
0.639814
0.617652
0.596914
0.576143
0.554113
0.530612
0.505583
0.480084
0.68902
0.639666
0.614019
0.59349
0.574638
0.555875
0.535865
0.514317
0.491006
0.46709
0.656633
0.609192
0.58505
0.566337
0.549583
0.533057
0.515303
0.495941
0.474559
0.452402
0.620924
0.575604
0.553111
0.536376
0.521909
0.507826
0.492541
0.47558
0.456322
0.436078
0.582142
0.539137
0.518423
0.503808
0.491792
0.480332
0.467707
0.453342
0.436383
0.418181
0.540554
0.50005
0.481226
0.468851
0.459423
0.450741
0.440939
0.429338
0.414837
0.398776
0.496447
0.458615
0.441779
0.431739
0.425008
0.419227
0.412384
0.403691
0.391781
0.377928
0.450127
0.415123
0.400353
0.39272
0.388766
0.385979
0.382199
0.37653
0.36732
0.355705
0.401909
0.369875
0.357235
0.352055
0.350927
0.351195
0.350552
0.34799
0.341563
0.332174
0.352121
0.323183
0.312718
0.310013
0.311732
0.315085
0.317619
0.318217
0.31463
0.307402
0.301101
0.275369
0.267106
0.266873
0.27143
0.277866
0.283587
0.287365
0.286653
0.281447
0.249191
0.226755
0.220707
0.222922
0.230278
0.239765
0.248653
0.255593
0.257744
0.254334
0.196735
0.17767
0.173832
0.178448
0.188538
0.201017
0.213024
0.223048
0.22798
0.226111
0.144077
0.128438
0.126792
0.133741
0.146476
0.161864
0.176923
0.189917
0.197869
0.197754
0.0915571
0.07938
0.079893
0.0890895
0.104357
0.12255
0.140587
0.156529
0.169091
0.175091
0.0395087
0.0308084
0.033435
0.0447762
0.0624394
0.0832997
0.104219
0.122968
0.139076
0.15132
-0.0117439
-0.016976
-0.0122921
0.00107568
0.0209766
0.0443308
0.0679852
0.0894376
0.108423
0.125513
-0.0618951
-0.0636832
-0.0570111
-0.0417475
-0.0197848
0.00586649
0.0320714
0.0561403
0.0777297
0.0984744
-0.110687
-0.109019
-0.100458
-0.0834405
-0.0596058
-0.0318704
-0.0033231
0.023236
0.0472994
0.0709209
-0.157805
-0.152758
-0.142393
-0.123766
-0.0982587
-0.0686651
-0.0379999
-0.00912147
0.0172813
0.0433764
-0.202988
-0.194677
-0.182581
-0.162513
-0.13553
-0.104314
-0.0717676
-0.0407691
-0.0121926
0.0161351
-0.246028
-0.234554
-0.220827
-0.199461
-0.171234
-0.13863
-0.104446
-0.0715438
-0.0409813
-0.0106151
-0.286725
-0.272207
-0.256954
-0.234448
-0.205179
-0.171439
-0.135871
-0.101292
-0.0689538
-0.0367118
-0.324906
-0.307483
-0.290811
-0.267319
-0.237215
-0.202584
-0.165891
-0.129877
-0.0960111
-0.0619925
-0.360426
-0.340255
-0.322275
-0.297947
-0.267209
-0.231929
-0.194373
-0.157181
-0.122055
-0.0863261
-0.393172
-0.370427
-0.35125
-0.326231
-0.295054
-0.25936
-0.221203
-0.183071
-0.146657
-0.11008
-0.423059
-0.397931
-0.377671
-0.352097
-0.320664
-0.284785
-0.246285
-0.20749
-0.170117
-0.132935
-0.450035
-0.42273
-0.4015
-0.375502
-0.343984
-0.308134
-0.269539
-0.23035
-0.192277
-0.15446
-0.47408
-0.444813
-0.422728
-0.396426
-0.36498
-0.32936
-0.290905
-0.251574
-0.213044
-0.174733
-0.4952
-0.464199
-0.441373
-0.41488
-0.383646
-0.348437
-0.310346
-0.271117
-0.232379
-0.193802
-0.513431
-0.480931
-0.457479
-0.430897
-0.4
-0.365366
-0.327843
-0.288951
-0.250251
-0.211643
-0.528836
-0.495077
-0.471111
-0.444535
-0.414085
-0.380167
-0.343398
-0.305066
-0.266636
-0.228232
-0.541501
-0.506726
-0.482359
-0.455874
-0.425962
-0.392882
-0.357032
-0.319463
-0.281524
-0.243562
-0.551535
-0.515987
-0.49133
-0.465015
-0.435717
-0.403574
-0.368784
-0.332162
-0.294921
-0.257638
-0.559066
-0.522984
-0.498147
-0.472072
-0.44345
-0.412324
-0.378711
-0.3432
-0.306846
-0.27048
-0.564238
-0.527857
-0.502946
-0.477176
-0.44928
-0.419228
-0.386885
-0.352624
-0.31733
-0.282118
-0.567207
-0.530754
-0.505874
-0.480468
-0.453334
-0.424396
-0.393395
-0.360501
-0.326418
-0.292594
-0.568139
-0.531833
-0.507085
-0.482099
-0.455754
-0.427953
-0.39834
-0.366906
-0.334167
-0.301964
-0.56721
-0.531254
-0.506737
-0.482221
-0.456684
-0.430028
-0.401831
-0.371927
-0.340645
-0.31029
-0.564596
-0.529181
-0.504991
-0.480993
-0.456276
-0.43076
-0.403987
-0.375661
-0.345926
-0.317645
-0.560474
-0.525777
-0.502004
-0.47857
-0.45468
-0.430289
-0.404932
-0.378208
-0.350094
-0.324108
-0.555021
-0.521202
-0.497932
-0.475105
-0.452047
-0.428758
-0.404791
-0.379676
-0.353235
-0.329758
-0.548408
-0.51561
-0.492925
-0.470748
-0.448523
-0.426305
-0.403692
-0.380172
-0.355435
-0.334674
-0.540797
-0.50915
-0.487126
-0.465639
-0.444248
-0.423068
-0.401758
-0.3798
-0.356783
-0.338928
-0.532343
-0.501959
-0.480668
-0.459912
-0.439355
-0.419175
-0.399109
-0.378662
-0.357358
-0.342578
-0.52319
-0.494168
-0.473677
-0.45369
-0.433968
-0.414748
-0.395858
-0.376853
-0.357235
-0.345665
-0.51347
-0.485896
-0.466266
-0.447086
-0.4282
-0.4099
-0.392109
-0.374459
-0.503303
-0.47725
-0.458537
-0.4402
-0.422154
-0.404734
-0.38796
-0.371557
-0.492796
-0.468329
-0.450583
-0.433122
-0.415919
-0.399343
-0.383496
-0.482047
-0.459218
-0.442485
-0.425931
-0.409576
-0.393805
-0.471144
-0.449997
-0.434313
-0.418694
-0.403189
-0.460168
-0.440735
-0.426131
-0.411467
-0.449192
-0.431495
-0.417992
-0.404298
-0.438289
-0.422335
-0.409945
-0.427524
-0.413308
-0.41696
-0.404461
-0.406656
-0.396664
-0.239187
-0.249341
-0.258415
-0.266441
-0.273468
-0.279554
-0.284776
-0.289222
-0.292998
-0.296219
-0.299015
-0.215073
-0.22511
-0.23434
-0.242798
-0.250531
-0.257593
-0.264053
-0.269989
-0.27549
-0.280657
-0.285599
-0.193406
-0.203195
-0.212401
-0.221049
-0.229171
-0.236806
-0.243999
-0.250798
-0.257263
-0.263455
-0.269445
-0.173758
-0.183107
-0.192019
-0.200517
-0.208622
-0.216364
-0.223775
-0.230893
-0.23776
-0.244425
-0.250944
-0.156047
-0.164906
-0.173441
-0.181671
-0.189617
-0.197301
-0.20475
-0.211998
-0.219078
-0.226032
-0.232908
-0.140105
-0.14845
-0.156559
-0.164446
-0.172129
-0.179627
-0.186965
-0.194166
-0.201261
-0.208283
-0.215269
-0.125716
-0.133539
-0.141187
-0.148674
-0.156015
-0.163227
-0.170328
-0.177339
-0.184284
-0.191192
-0.198093
-0.112695
-0.119998
-0.127172
-0.134229
-0.141182
-0.148043
-0.154829
-0.161558
-0.168248
-0.174923
-0.181609
-0.100873
-0.107669
-0.11437
-0.120985
-0.127525
-0.134001
-0.140426
-0.146813
-0.15318
-0.159544
-0.165927
-0.0901148
-0.0964202
-0.102655
-0.108827
-0.114945
-0.121018
-0.127055
-0.133068
-0.13907
-0.145076
-0.151102
-0.0802885
-0.0861269
-0.091912
-0.0976502
-0.103348
-0.109013
-0.114654
-0.120278
-0.125897
-0.131521
-0.137163
-0.071306
-0.0766983
-0.0820506
-0.0873678
-0.0926553
-0.0979187
-0.103164
-0.108398
-0.113629
-0.118865
-0.124114
-0.0630704
-0.0680431
-0.0729851
-0.0779004
-0.0827931
-0.0876674
-0.0925282
-0.0973805
-0.10223
-0.107083
-0.111946
-0.0555107
-0.0600904
-0.0646461
-0.069181
-0.0736981
-0.0782009
-0.0826929
-0.0871779
-0.0916599
-0.0961435
-0.100634
-0.0485655
-0.0527785
-0.0569727
-0.0611502
-0.0653136
-0.0694652
-0.0736078
-0.0777442
-0.0818773
-0.0860104
-0.090147
-0.0421783
-0.0460516
-0.0499096
-0.0537541
-0.0575867
-0.0614095
-0.0652244
-0.0690334
-0.0728387
-0.0766427
-0.0804477
-0.0363043
-0.0398634
-0.0434099
-0.0469451
-0.0504703
-0.053987
-0.0574965
-0.0610003
-0.0645001
-0.0679974
-0.0714941
-0.0308992
-0.0341691
-0.0374284
-0.0406781
-0.0439191
-0.0471524
-0.0503791
-0.0536002
-0.0568169
-0.0600303
-0.0632417
-0.0259267
-0.0289309
-0.031926
-0.0349128
-0.0378919
-0.040864
-0.0438298
-0.04679
-0.0497454
-0.052697
-0.0556454
-0.0213519
-0.0241127
-0.0268657
-0.0296112
-0.0323497
-0.0350816
-0.0378075
-0.0405277
-0.0432429
-0.0459536
-0.0486604
-0.017145
-0.0196832
-0.0222144
-0.0247388
-0.0272568
-0.0297684
-0.0322741
-0.0347741
-0.0372688
-0.0397584
-0.0422436
-0.0132777
-0.0156125
-0.017941
-0.0202633
-0.0225794
-0.0248894
-0.0271934
-0.0294917
-0.0317843
-0.0340716
-0.0363536
-0.0386308
-0.00972567
-0.0118748
-0.0140182
-0.0161556
-0.0182871
-0.0204127
-0.0225323
-0.024646
-0.0267538
-0.0288558
-0.0309522
-0.0330429
-0.00646488
-0.00844479
-0.0104193
-0.0123881
-0.0143512
-0.0163084
-0.0182596
-0.0202047
-0.0221437
-0.0240765
-0.0260032
-0.0279237
-0.00347466
-0.00530043
-0.00712101
-0.00893616
-0.0107456
-0.0125493
-0.0143468
-0.0161382
-0.0179231
-0.0197016
-0.0214736
-0.0232388
-0.000735756
-0.00242124
-0.00410174
-0.00577694
-0.00744653
-0.00911026
-0.0107679
-0.0124191
-0.0140638
-0.0157018
-0.0173328
-0.0189567
0.00176922
0.000211257
-0.00134185
-0.00288976
-0.00443211
-0.00596858
-0.00749888
-0.00902272
-0.0105398
-0.01205
-0.0135529
-0.0150485
0.00405611
0.00261395
0.00117653
-0.000255751
-0.00168252
-0.00310341
-0.00451808
-0.00592621
-0.00732749
-0.00872164
-0.0101084
-0.0114875
0.00613928
0.00480212
0.00346962
0.00214219
0.000820247
-0.000495834
-0.00180568
-0.00310894
-0.00440528
-0.00569438
-0.00697593
-0.00824967
0.0080317
0.0067896
0.00555206
0.00431954
0.00309246
0.00187122
0.000656197
-0.000552226
-0.0017537
-0.00294788
-0.00413445
-0.0053131
0.00974528
0.00858898
0.00743719
0.00629035
0.00514889
0.00401323
0.00288376
0.00176086
0.000644893
-0.00046378
-0.00156483
-0.00265794
0.0112903
0.0102112
0.00913665
0.00806695
0.00700256
0.00594389
0.00489135
0.00384532
0.00280618
0.00177427
0.000749945
-0.000266482
0.0126763
0.0116665
0.0106611
0.00966057
0.00866524
0.00767554
0.00669188
0.00571465
0.0047442
0.0037809
0.00282509
0.00187708
0.0139111
0.0129632
0.0120196
0.0110807
0.010147
0.00921874
0.00829643
0.00738043
0.00647108
0.00556875
0.00467377
0.00378646
0.0150022
0.0141091
0.0132202
0.0123359
0.0114566
0.0105827
0.00971466
0.00885274
0.00799733
0.00714876
0.00630737
0.00547346
0.015955
0.0151099
0.014269
0.0134326
0.0126011
0.0117749
0.0109543
0.0101397
0.00933138
0.00852975
0.00773508
0.00694768
0.0167742
0.0159708
0.0151714
0.0143764
0.0135862
0.0128011
0.0120215
0.0112476
0.0104799
0.00971865
0.0089641
0.00821657
0.0174621
0.0166942
0.0159301
0.0151703
0.0144152
0.013665
0.01292
0.0121807
0.0114473
0.01072
0.00999922
0.00928517
0.018021
0.0172822
0.0165472
0.0158164
0.01509
0.0143684
0.0136518
0.0129406
0.0122351
0.0115355
0.0108421
0.0101552
0.0184481
0.0177325
0.0170207
0.0163128
0.0156093
0.0149103
0.0142162
0.0135272
0.0128435
0.0121655
0.0114933
0.0108272
0.0187429
0.0180436
0.0173479
0.016656
0.0159684
0.0152851
0.0146064
0.0139327
0.013264
0.0126007
0.011943
0.011291
0.0188943
0.0182063
0.0175218
0.0168411
0.0161643
0.0154916
0.0148232
0.0141592
0.0135
0.0128455
0.0121961
0.0115519
0.167739
0.139922
0.112438
0.0872681
0.0622192
0.0372953
0.0128767
-0.0109317
-0.0340817
-0.0565158
-0.0781523
-0.0986982
-0.118494
-0.137327
-0.1551
-0.171828
-0.187498
-0.202083
-0.215563
-0.227932
0.154613
0.129313
0.102738
0.0795428
0.056988
0.0345481
0.0126457
-0.00859052
-0.0291646
-0.0490565
-0.0682599
-0.0867545
-0.104074
-0.120975
-0.137013
-0.152163
-0.16646
-0.179903
-0.192484
-0.204204
0.137115
0.11344
0.0891121
0.0683321
0.0485112
0.028861
0.00970579
-0.00882336
-0.0267551
-0.0440954
-0.0608307
-0.0769331
-0.0922191
-0.107225
-0.121524
-0.135112
-0.148046
-0.160339
-0.171992
-0.18301
0.120852
0.0996417
0.0781901
0.0598755
0.0424707
0.0252166
0.00837286
-0.00792644
-0.0237072
-0.038989
-0.0537712
-0.0680843
-0.0819724
-0.0949879
-0.107717
-0.11997
-0.131703
-0.142937
-0.153686
-0.163956
0.106818
0.0879727
0.0691925
0.0530769
0.0377481
0.0225583
0.00771675
-0.00665718
-0.0205852
-0.0340909
-0.0471754
-0.0598406
-0.0720879
-0.0838206
-0.0953402
-0.106434
-0.117105
-0.127389
-0.137301
-0.14685
0.0949244
0.0781376
0.0617036
0.0475179
0.0339881
0.0205868
0.00748459
-0.00522118
-0.0175508
-0.0295291
-0.0411631
-0.0524576
-0.0634242
-0.074061
-0.0843572
-0.094378
-0.104096
-0.113515
-0.122648
-0.131508
0.0848162
0.0698602
0.0554863
0.0430026
0.0310464
0.0192003
0.00760747
-0.00365463
-0.0146051
-0.0252674
-0.0356504
-0.0457606
-0.0556124
-0.0652231
-0.0744927
-0.0835819
-0.0924495
-0.101085
-0.1095
-0.117706
0.0762415
0.0629253
0.0503458
0.0393495
0.0287654
0.0182694
0.00798547
-0.00202503
-0.0117799
-0.0212998
-0.0305935
-0.039667
-0.0485295
-0.0571882
-0.0656192
-0.0739153
-0.0820102
-0.0899191
-0.0976638
-0.105254
0.0689939
0.0571374
0.046111
0.0364068
0.0270168
0.0176937
0.0085466
-0.000375777
-0.00908968
-0.0176125
-0.0259514
-0.034111
-0.0420954
-0.0498883
-0.0574418
-0.06514
-0.0725802
-0.0798335
-0.0869604
-0.0939725
0.0628782
0.0523145
0.0426291
0.0340457
0.0256955
0.0173926
0.00923406
0.00125814
-0.00655062
-0.0142081
-0.0217223
-0.0290994
-0.0363491
-0.0435032
-0.05061
-0.0573206
-0.0640415
-0.0707031
-0.0772648
-0.083732
0.0577223
0.0483008
0.0397736
0.0321635
0.0247206
0.0173084
0.0100139
0.00286737
-0.00414485
-0.0110358
-0.0178114
-0.0244756
-0.0310321
-0.0374863
-0.0438474
-0.0500884
-0.0562735
-0.0623903
-0.0684277
-0.074391
0.0533798
0.0449662
0.0374408
0.0306773
0.024028
0.0173955
0.0108582
0.00444046
-0.00187027
-0.00808472
-0.0142076
-0.0202426
-0.0261935
-0.0320649
-0.0378608
-0.0435793
-0.0492412
-0.0548418
-0.0603826
-0.065869
0.0497276
0.0422025
0.0355451
0.0295198
0.0235663
0.0176184
0.0117471
0.00597168
0.00028101
-0.00533376
-0.0108764
-0.0163497
-0.0217571
-0.0271023
-0.0323877
-0.037612
-0.0427991
-0.0479328
-0.0530187
-0.0580633
0.0466618
0.0399203
0.0340164
0.0286363
0.0232945
0.0179494
0.0126655
0.00745809
0.00231732
-0.00276405
-0.00778883
-0.0127592
-0.0176778
-0.0225473
-0.0273691
-0.0321419
-0.0368936
-0.0416005
-0.0462686
-0.0509043
0.0440948
0.0380451
0.0327965
0.0279817
0.0231789
0.018366
0.0136015
0.00889757
0.00424549
-0.00036068
-0.00492309
-0.00944348
-0.013924
-0.018367
-0.0227772
-0.0271603
-0.0314827
-0.0357888
-0.0400729
-0.0443312
0.0419529
0.0365146
0.0318373
0.0275189
0.0231924
0.0188506
0.0145466
0.0102906
0.00607447
0.00189367
-0.00225328
-0.00636751
-0.0104505
-0.0145036
-0.0185289
-0.0225285
-0.0264977
-0.0304479
-0.0343782
-0.0382878
0.0401736
0.0352766
0.0310983
0.0272167
0.0233119
0.0193878
0.0154933
0.0116362
0.00780953
0.00400963
0.000235571
-0.00351334
-0.00723815
-0.01094
-0.0146201
-0.0182796
-0.0219178
-0.025539
-0.0291434
-0.0327314
0.0387035
0.0342869
0.0305451
0.0270483
0.0235176
0.0199649
0.0164348
0.0129337
0.0094556
0.00599735
0.00255857
-0.000861072
-0.00426227
-0.00764579
-0.0110124
-0.0143629
-0.017697
-0.0210176
-0.0243244
-0.027618
0.0374967
0.0335072
0.0301478
0.0269909
0.0237924
0.0205703
0.0173652
0.0141823
0.0110163
0.00786479
0.00472768
0.00160491
-0.0015039
-0.00459921
-0.00768152
-0.0107511
-0.0138079
-0.0168546
-0.0198894
-0.0229131
0.0365138
0.0329048
0.0298809
0.0270244
0.0241215
0.021194
0.018279
0.0153809
0.0124949
0.00961908
0.00675371
0.00389895
0.00105469
-0.00177929
-0.00460315
-0.00741651
-0.0102184
-0.0130182
-0.0158058
-0.0185831
0.0357203
0.0324509
0.0297218
0.027131
0.0244914
0.0218268
0.019171
0.0165278
0.0138929
0.0112649
0.00864404
0.00603077
0.00342512
0.000827056
-0.00176347
-0.00434694
-0.00692401
-0.00948793
-0.0120469
-0.0145996
0.0350863
0.0321207
0.0296509
0.0272955
0.0248905
0.0224608
0.020037
0.0176223
0.015213
0.012808
0.0104078
0.00801284
0.00562339
0.00323959
0.000861586
-0.00151067
-0.0038774
-0.00623538
-0.00858863
-0.0109363
0.0345857
0.0318922
0.0296509
0.0275041
0.0253085
0.0230888
0.0208727
0.018663
0.0164564
0.0142521
0.0120507
0.00985284
0.0076588
0.00546884
0.00328324
0.00110222
-0.00107405
-0.00324457
-0.00541027
-0.00757077
0.0341957
0.0317465
0.0297067
0.027745
0.0257363
0.0237045
0.0216745
0.0196488
0.0176244
0.0156008
0.0135788
0.0115589
0.00954156
0.00752711
0.0055159
0.00350829
0.00150457
-0.00049464
-0.00248952
-0.00447971
0.0338966
0.0316667
0.0298049
0.0280077
0.026166
0.0243025
0.0224393
0.0205787
0.0187182
0.0168575
0.0149972
0.0131381
0.0112805
0.00942487
0.0075717
0.00572135
0.00387423
0.00203084
0.0001913
-0.00164399
0.0336711
0.0316386
0.0299342
0.0282831
0.0265907
0.0248779
0.0231645
0.0214522
0.0197392
0.0180252
0.0163108
0.0145968
0.0128836
0.0111718
0.00946182
0.00775408
0.00604904
0.0043472
0.00264884
0.000954391
0.0335044
0.0316494
0.0300845
0.0285635
0.0270046
0.025427
0.0238478
0.0222689
0.0206886
0.0191067
0.0175239
0.015941
0.0143584
0.0127767
0.0111964
0.00961786
0.00804169
0.00646834
0.00489817
0.00333165
0.0333838
0.0316887
0.0302474
0.0288422
0.0274029
0.0259464
0.0244878
0.0230287
0.0215677
0.0201049
0.0186408
0.0171762
0.0157116
0.0142476
0.0127846
0.0113231
0.00986374
0.0084069
0.00695302
0.00550261
0.0332985
0.0317473
0.0304159
0.0291138
0.0277814
0.0264335
0.0250831
0.0237316
0.0223781
0.0210224
0.0196654
0.0183075
0.0169495
0.0155918
0.0142349
0.0128793
0.0115257
0.0101744
0.00882585
0.00748066
0.0332395
0.0318178
0.0305839
0.0293738
0.028137
0.0268864
0.025633
0.0243783
0.0231212
0.021862
0.0206013
0.0193397
0.0180778
0.016816
0.015555
0.0142951
0.0130371
0.0117813
0.0105279
0.00927795
0.0331994
0.0318938
0.0307467
0.0296185
0.0284673
0.0273037
0.0261373
0.0249692
0.0237989
0.0226263
0.0214523
0.0202773
0.0191019
0.0179266
0.0167519
0.0155784
0.0144066
0.013237
0.0120697
0.0109056
0.0331722
0.0319707
0.0309005
0.0298452
0.0287702
0.0276845
0.0265958
0.0255053
0.0244126
0.0233177
0.0222214
0.0211241
0.0200264
0.0189288
0.0178317
0.0167358
0.0156414
0.014549
0.0134598
0.0123734
0.0331533
0.0320444
0.0310425
0.030052
0.0290448
0.0280284
0.027009
0.0259878
0.0249643
0.0239389
0.022912
0.0218843
0.0208562
0.0198282
0.0188008
0.0177745
0.0167498
0.0157271
0.014707
0.0136899
0.033139
0.0321123
0.0311706
0.0302374
0.0292903
0.0283352
0.0273773
0.0264175
0.0254557
0.024492
0.023527
0.0225612
0.021595
0.0206291
0.0196637
0.0186995
0.0177368
0.0167762
0.0158181
0.0148629
0.033127
0.0321725
0.0312836
0.0304006
0.0295063
0.0286053
0.0277016
0.026796
0.0258884
0.0249793
0.0240689
0.0231579
0.0222466
0.0213355
0.0204251
0.0195159
0.0186082
0.0177025
0.0167994
0.0158991
0.0331155
0.0322237
0.0313806
0.0305413
0.0296929
0.0288389
0.0279824
0.0271241
0.026264
0.0254025
0.02454
0.0236768
0.0228136
0.0219507
0.0210885
0.0202275
0.0193681
0.0185107
0.0176558
0.0168037
0.0331041
0.0322657
0.0314616
0.0306597
0.0298506
0.0290369
0.0282209
0.0274032
0.026584
0.0257635
0.0249422
0.0241205
0.0232988
0.0224775
0.021657
0.0208378
0.0200202
0.0192046
0.0183915
0.0175812
0.0330921
0.0322979
0.0315263
0.0307554
0.0299791
0.0291991
0.028417
0.0276334
0.0268486
0.0260627
0.0252762
0.0244895
0.023703
0.022917
0.0221319
0.0213481
0.020566
0.019786
0.0190084
0.0182337
0.0330809
0.0323219
0.0315761
0.0308301
0.03008
0.0293271
0.0285725
0.0278166
0.0270597
0.026302
0.025544
0.024786
0.0240282
0.0232712
0.0225152
0.0217606
0.0210078
0.0202571
0.0195088
0.0187634
0.0330691
0.0323358
0.0316087
0.0308809
0.0301503
0.0294177
0.0286837
0.0279488
0.0272132
0.0264772
0.0257412
0.0250054
0.0242702
0.0235359
0.0228029
0.0220714
0.0213417
0.0206142
0.0198893
0.0191671
0.0330622
0.0323452
0.0316301
0.0309141
0.0301963
0.0294773
0.0287573
0.0280368
0.027316
0.0265951
0.0258744
0.0251542
0.0244348
0.0237165
0.0229996
0.0222843
0.021571
0.0208599
0.0201514
0.0194456
0.0330529
0.0323406
0.0316282
0.0309153
0.0302017
0.0294877
0.0287735
0.0280594
0.0273457
0.0266326
0.0259202
0.025209
0.0244991
0.0237907
0.0230841
0.0223795
0.0216771
0.0209772
0.0202799
0.0195855
0.185728
0.187102
0.190349
0.19485
0.200571
0.207281
0.214836
0.223042
0.231684
0.240495
0.24914
0.257206
0.264184
0.26946
0.272311
0.27192
0.26739
0.257812
0.24225
0.219536
0.182091
0.184392
0.185701
0.188782
0.193049
0.198436
0.204712
0.211708
0.219212
0.226985
0.234731
0.242095
0.248644
0.253863
0.257149
0.257824
0.255148
0.248357
0.236706
0.219525
0.196312
0.162493
0.182931
0.184175
0.187084
0.191098
0.19613
0.201946
0.208361
0.215148
0.222049
0.228759
0.234911
0.240075
0.243754
0.245387
0.244368
0.240067
0.23187
0.219221
0.201719
0.179445
0.148745
0.181333
0.182502
0.185219
0.188957
0.193603
0.198923
0.204715
0.210737
0.21672
0.222345
0.227242
0.23099
0.233115
0.233105
0.230428
0.224564
0.215045
0.201499
0.18372
0.161967
0.13354
0.179594
0.180681
0.183196
0.18664
0.190882
0.195684
0.200831
0.20607
0.211122
0.215662
0.219324
0.221702
0.222356
0.220828
0.21667
0.209471
0.198899
0.184743
0.166952
0.145866
0.119686
0.17771
0.178712
0.181014
0.184153
0.187976
0.192247
0.196738
0.20119
0.205319
0.208801
0.211282
0.21238
0.211696
0.208838
0.20344
0.1952
0.183908
0.169482
0.151994
0.131825
0.107792
0.175679
0.176591
0.178674
0.181495
0.184888
0.188617
0.192446
0.196115
0.199337
0.201799
0.203163
0.203081
0.201202
0.197199
0.190792
0.181774
0.170041
0.155612
0.138641
0.119513
0.0974747
0.173497
0.174316
0.176172
0.178667
0.181621
0.184802
0.18797
0.190864
0.193205
0.194693
0.195015
0.193859
0.190927
0.185959
0.178753
0.169186
0.157241
0.143008
0.126694
0.108671
0.0884944
0.171163
0.171885
0.17351
0.175671
0.178182
0.180813
0.183325
0.185464
0.186958
0.187528
0.18689
0.184773
0.180933
0.175172
0.167359
0.157447
0.145479
0.131598
0.11604
0.099155
0.0807122
0.168676
0.169299
0.170689
0.172513
0.174579
0.176664
0.178533
0.179941
0.180632
0.180348
0.178839
0.175877
0.171271
0.164882
0.15664
0.146555
0.13472
0.121311
0.106571
0.0908276
0.0739913
0.166037
0.166559
0.167713
0.169198
0.170822
0.17237
0.173615
0.174325
0.174262
0.173195
0.17091
0.167221
0.161986
0.15512
0.146605
0.136495
0.124918
0.112064
0.0981775
0.0835539
0.0681981
0.163247
0.163668
0.164586
0.165733
0.166923
0.167948
0.168595
0.168645
0.167884
0.16611
0.163144
0.158843
0.15311
0.145906
0.137254
0.127241
0.116016
0.103776
0.0907513
0.0772097
0.063213
0.16031
0.160629
0.161314
0.162129
0.162895
0.163417
0.163495
0.16293
0.161533
0.159131
0.155581
0.150778
0.144668
0.137248
0.128575
0.118758
0.107956
0.096362
0.0841922
0.0716833
0.0589297
0.15723
0.157449
0.157906
0.158397
0.158753
0.158795
0.15834
0.15721
0.155241
0.15229
0.14825
0.143052
0.136674
0.129147
0.120549
0.111005
0.100675
0.0897442
0.0784076
0.0668744
0.0552546
0.154013
0.154135
0.154369
0.154548
0.154514
0.154104
0.153156
0.151513
0.149038
0.145619
0.14118
0.135683
0.129137
0.121595
0.113153
0.10394
0.0941136
0.083846
0.073312
0.0626939
0.0521057
0.150669
0.150694
0.150717
0.150596
0.150194
0.149365
0.147966
0.145866
0.142952
0.139144
0.134391
0.128685
0.122057
0.114579
0.106354
0.0975149
0.08821
0.0785963
0.0688276
0.0590626
0.0494116
0.147205
0.147139
0.14696
0.146558
0.145812
0.144599
0.142795
0.140293
0.137009
0.132884
0.127898
0.122063
0.115429
0.108079
0.100121
0.0916843
0.0829064
0.0739286
0.0648843
0.0559108
0.0471102
0.143633
0.143481
0.143113
0.142448
0.141388
0.139827
0.137665
0.134819
0.131228
0.126859
0.121713
0.11582
0.109244
0.102074
0.0944192
0.0864015
0.0781474
0.0697816
0.0614187
0.0531769
0.0451475
0.139966
0.139733
0.13919
0.138284
0.136939
0.13507
0.132598
0.129464
0.125629
0.121082
0.11584
0.109951
0.103487
0.0965379
0.0892117
0.0816213
0.0738809
0.0660994
0.0583742
0.0508069
0.0434766
0.136218
0.13591
0.135208
0.134084
0.132486
0.130348
0.127614
0.124246
0.120226
0.115561
0.110284
0.104451
0.0981408
0.0914443
0.0844628
0.0773004
0.0700583
0.0628308
0.0557001
0.0487533
0.0420567
0.132405
0.132028
0.131184
0.129867
0.128047
0.125681
0.122732
0.119182
0.115032
0.110303
0.105041
0.0993091
0.0931875
0.0867655
0.0801375
0.0733975
0.0666347
0.0599297
0.0533513
0.0469741
0.0408519
0.128542
0.128105
0.127136
0.125651
0.123642
0.121087
0.117969
0.114286
0.110055
0.105311
0.100107
0.0945127
0.0886063
0.0824736
0.0762015
0.069874
0.0635687
0.0573543
0.0512877
0.0454325
0.0398312
0.124649
0.124159
0.123082
0.121454
0.11929
0.116585
0.11334
0.109569
0.105302
0.100585
0.0954767
0.0900479
0.084376
0.0785411
0.0726222
0.0666938
0.0608227
0.055067
0.0494734
0.0440962
0.0389673
0.120745
0.120209
0.119042
0.117297
0.115009
0.11219
0.108858
0.10504
0.100777
0.0961231
0.0911404
0.0858996
0.0804751
0.0749412
0.069369
0.0638237
0.0583626
0.0530343
0.047877
0.0429369
0.0382364
0.116848
0.116275
0.115035
0.113198
0.110816
0.107918
0.104535
0.100707
0.0964831