/*--------------------------------*- C++ -*----------------------------------*\
  =========                 |
  \\      /  F ield         | OpenFOAM: The Open Source CFD Toolbox
   \\    /   O peration     | Website:  https://openfoam.org
    \\  /    A nd           | Version:  7
     \\/     M anipulation  |
\*---------------------------------------------------------------------------*/
FoamFile
{
    version     2.0;
    format      ascii;
    class       surfaceScalarField;
    location    "10";
    object      phi;
}
// * * * * * * * * * * * * * * * * * * * * * * * * * * * * * * * * * * * * * //

dimensions      [0 3 -1 0 0 0 0];

internalField   nonuniform List<scalar> 
12526
(
7.91073e-05
7.98612e-05
8.06433e-05
-7.07001e-07
8.13503e-05
0.000186512
-4.44044e-07
8.17943e-05
0.00017896
1.16138e-07
8.16782e-05
1.06016e-05
0.000168475
0.000181572
8.97321e-07
8.07808e-05
1.52667e-05
0.000154105
5.58812e-05
0.000140958
2.36976e-05
2.03871e-06
7.87421e-05
2.12538e-05
0.00013489
7.23711e-05
8.98403e-05
-7.75269e-05
3.54687e-06
7.51953e-05
2.86558e-05
0.000109781
9.2097e-05
2.63991e-05
0.000214482
-0.000199912
-0.000600775
5.43503e-06
6.97602e-05
3.75188e-05
7.76974e-05
0.000115089
-5.11714e-05
0.000260931
-0.000345753
0.00050009
-0.000839934
-0.00155991
7.71049e-06
6.20497e-05
4.78471e-05
3.75608e-05
0.00014125
-0.000144574
0.000312386
-0.000516889
0.000585412
-0.00111296
0.00097253
-0.00194703
-0.00298283
1.03755e-05
5.16743e-05
5.96074e-05
-1.16712e-05
0.000170347
-0.000255314
0.000367926
-0.000714468
0.000673347
-0.00141838
0.00108776
-0.00236145
0.00157897
-0.00347404
-0.00464206
1.34279e-05
3.82464e-05
7.27273e-05
-7.09706e-05
0.000202008
-0.000384595
0.000426254
-0.000938714
0.000760547
-0.00175267
0.00119217
-0.00279307
0.00167447
-0.00395634
0.00214619
-0.00511378
-0.00616035
1.68605e-05
2.13859e-05
8.70893e-05
-0.000141199
0.000235696
-0.000533202
0.000485692
-0.00118871
0.000843277
-0.00211026
0.00128066
-0.00323045
0.00174123
-0.00441691
0.00216803
-0.00554058
0.00253116
-0.00652348
-0.00737964
2.06572e-05
7.28705e-07
0.000102521
-0.000223063
0.000270704
-0.000701385
0.00054423
-0.00146224
0.000917799
-0.00248383
0.00134947
-0.00366212
0.00177853
-0.00484597
0.00215702
-0.00591908
0.00246822
-0.00683468
-0.00763048
0.00271906
2.47891e-05
-2.40604e-05
0.000118786
-0.00031706
0.000306143
-0.000888742
0.00059965
-0.00175574
0.000980799
-0.00286498
0.0013965
-0.00407782
0.00178762
-0.00523709
0.00211772
-0.00624918
0.00238176
-0.00709872
-0.00784148
0.00259276
2.92155e-05
-5.32759e-05
0.000135576
-0.000423421
0.000340969
-0.00109413
0.000649705
-0.00206448
0.00102976
-0.00324503
0.00142123
-0.00446928
0.00177109
-0.00558695
0.00205495
-0.00653304
0.00227725
-0.00732102
-0.00801899
0.00245475
3.38742e-05
-8.71502e-05
0.000152517
-0.000542063
0.000374027
-0.00131564
0.000692348
-0.0023828
0.00106315
-0.00361583
0.00142447
-0.00483061
0.00173224
-0.00589472
0.00197335
-0.00677415
0.00215927
-0.00750694
-0.00816818
0.00230847
3.86854e-05
-0.000125836
0.00016917
-0.000672548
0.000404133
-0.00155061
0.000725926
-0.00270459
0.00108045
-0.00397036
0.00140796
-0.00515811
0.00167463
-0.00616139
0.00187708
-0.00697661
0.00203151
-0.00766136
-0.00829318
0.00215651
4.35522e-05
-0.000169388
0.000185057
-0.000814053
0.000430167
-0.00179572
0.000749317
-0.00302374
0.001082
-0.00430304
0.00137395
-0.00545006
0.00160168
-0.00638912
0.00176968
-0.0071446
0.00189684
-0.00778852
-0.0083971
0.00200076
4.83634e-05
-0.000217751
0.000199682
-0.000965372
0.00045116
-0.00204719
0.000761976
-0.00333456
0.00106881
-0.00460987
0.00132497
-0.00570622
0.00151658
-0.00658074
0.00165408
-0.00728211
0.00175746
-0.0078919
-0.00848224
0.0018426
5.2998e-05
-0.000270749
0.000212563
-0.00112494
0.000466378
-0.00230101
0.000763895
-0.00363208
0.00104229
-0.00488827
0.00126351
-0.00592744
0.0014221
-0.00673933
0.00153266
-0.00739267
0.00161502
-0.00797427
-0.00855025
0.00168304
5.73302e-05
-0.000328079
0.000223259
-0.00129087
0.000475356
-0.00255311
0.000755507
-0.00391223
0.0010041
-0.00513686
0.00119194
-0.00611528
0.00132059
-0.00686797
0.00140726
-0.00747934
0.00147078
-0.00803778
-0.00860231
0.00152283
6.12358e-05
-0.000389315
0.000231403
-0.00146103
0.000477909
-0.00279961
0.000737577
-0.0041719
0.000955988
-0.00535528
0.00111242
-0.00627171
0.00121402
-0.00696957
0.00127935
-0.00754467
0.00132565
-0.00808408
-0.0086392
0.00136254
6.4598e-05
-0.000453913
0.00023672
-0.00163316
0.000474114
-0.00303701
0.000711076
-0.00440886
0.000899637
-0.00554384
0.00102682
-0.00639889
0.001104
-0.00704675
0.00115005
-0.00759072
0.00118032
-0.00811435
-0.00866152
0.00120263
6.73127e-05
-0.000521226
0.000239039
-0.00180488
0.000464259
-0.00326223
0.000677088
-0.00462169
0.000836646
-0.00570339
0.000936767
-0.00649901
0.000991808
-0.00710179
0.00102021
-0.00761912
0.00103532
-0.00812947
-0.00866962
0.00104342
6.92926e-05
-0.000590518
0.000238294
-0.00197388
0.000448798
-0.00347273
0.00063673
-0.00480962
0.000768461
-0.00583512
0.000843612
-0.00657417
0.000878475
-0.00713665
0.000890491
-0.00763113
0.000891062
-0.00813004
-0.00866372
0.000885163
7.0471e-05
-0.000660989
0.000234519
-0.00213793
0.000428288
-0.0036665
0.000591093
-0.00497242
0.000696362
-0.00594039
0.000748489
-0.00662629
0.000764807
-0.00715297
0.000761408
-0.00762774
0.000747859
-0.00811649
-0.00864392
0.000728064
7.08032e-05
-0.000731793
0.000227835
-0.00229496
0.000403351
-0.00384202
0.000541205
-0.00511028
0.000621465
-0.00602065
0.000652324
-0.00665715
0.000651439
-0.00715208
0.000633342
-0.00760964
0.000605957
-0.0080891
-0.00861026
0.000572289
7.02668e-05
-0.000802059
0.000218432
-0.00244313
0.000374627
-0.00399821
0.00048801
-0.00522366
0.000544724
-0.00607737
0.00055588
-0.00666831
0.000538886
-0.00713509
0.000506607
-0.00757736
0.000465544
-0.00804804
-0.00856264
0.000417928
6.88606e-05
-0.00087092
0.000206548
-0.00258082
0.000342748
-0.00413441
0.000432354
-0.00531327
0.000466948
-0.00611196
0.000459777
-0.00666114
0.000427579
-0.00710289
0.000381531
-0.00753131
0.000326785
-0.0079933
-0.00850079
0.000264934
6.66039e-05
-0.000937524
0.000192452
-0.00270666
0.000308315
-0.00425027
0.000374982
-0.00537993
0.00038881
-0.00612579
0.000364513
-0.00663684
0.000317878
-0.00705626
0.000258523
-0.00747196
0.000189947
-0.00792472
-0.00842363
0.000112787
6.35361e-05
-0.00100106
0.000176446
-0.00281957
0.000271891
-0.00434572
0.000316542
-0.00542458
0.000310864
-0.00612011
0.000270472
-0.00659645
0.000210054
-0.00699584
0.000137844
-0.00739975
5.62884e-05
-0.00784316
-0.00832932
-3.8018e-05
5.97139e-05
-0.00106077
0.000158843
-0.0029187
0.000233994
-0.00442087
0.000257593
-0.00544818
0.000233569
-0.00609609
0.00017795
-0.00654083
0.000104352
-0.00692224
1.85712e-05
-0.00731396
-7.5336e-05
-0.00774926
-0.00822493
-0.000179732
5.52058e-05
-0.00111598
0.000139935
-0.00300343
0.000195093
-0.00447603
0.000198619
-0.00545171
0.000157304
-0.00605477
8.72017e-05
-0.00647073
-4.48825e-07
-0.00683459
-9.68456e-05
-0.00721757
-0.000204721
-0.00764138
-0.00810864
-0.000321004
5.00902e-05
-0.00116607
0.000120003
-0.00307334
0.000155614
-0.00451164
0.000140018
-0.00543611
8.23398e-05
-0.00599709
-1.93196e-06
-0.00638645
-0.000100131
-0.00673639
-0.000210041
-0.00710766
-0.000330618
-0.00752081
-0.00797933
-0.00045993
4.44551e-05
-0.00121053
9.93159e-05
-0.0031282
0.000115923
-0.00452825
8.21124e-05
-0.0054023
9.04678e-06
-0.00592403
-8.76755e-05
-0.00628973
-0.000198631
-0.00662544
-0.000320563
-0.00698573
-0.000453506
-0.00738786
-0.007837
-0.00059584
3.83978e-05
-0.00124892
7.8157e-05
-0.00316796
7.63e-05
-0.00452639
2.53442e-05
-0.00535135
-6.23808e-05
-0.0058363
-0.000171795
-0.00618032
-0.000294545
-0.00650269
-0.000428216
-0.00685206
-0.000573336
-0.00724274
-0.00768189
-0.000728445
3.20083e-05
-0.00128093
5.68282e-05
-0.00319278
3.70764e-05
-0.00450664
-3.03626e-05
-0.00528391
-0.000131961
-0.00573471
-0.000253558
-0.00605872
-0.000387755
-0.00636849
-0.000532914
-0.0067069
-0.000689992
-0.00708566
-0.00751449
-0.000857392
2.53626e-05
-0.00130629
3.55194e-05
-0.00320294
6.70649e-07
-0.00447179
-8.44261e-05
-0.00519881
-0.000199593
-0.00561954
-0.000332878
-0.00592544
-0.000478202
-0.00622316
-0.000634598
-0.0065505
-0.000803336
-0.00691693
-0.00733552
-0.000982304
1.86105e-05
-0.0013249
1.4407e-05
-0.00319874
-3.99374e-05
-0.00441745
-0.000137539
-0.00510121
-0.000265104
-0.00549197
-0.000409665
-0.00578087
-0.000565824
-0.00606701
-0.000733203
-0.00638312
-0.000913268
-0.00673686
-0.0071455
-0.00110328
1.16235e-05
-0.00133653
-6.19272e-06
-0.00318092
-7.70989e-05
-0.00434654
-0.000189015
-0.00498929
-0.00032843
-0.00535256
-0.000483855
-0.00562545
-0.000650593
-0.00590027
-0.000828706
-0.00620501
-0.00101984
-0.00654572
-0.0069442
-0.00122114
4.12369e-06
-0.00134065
-2.89742e-05
-0.00314782
-0.000113362
-0.00426215
-0.000238654
-0.004864
-0.000389497
-0.00520172
-0.000555427
-0.00545952
-0.000732569
-0.00572313
-0.000921274
-0.0060163
-0.00112303
-0.00634397
-0.00673172
-0.00133551
-3.31353e-06
-0.00133734
-5.01409e-05
-0.003101
-0.000148531
-0.00416376
-0.000286397
-0.00472614
-0.000448185
-0.00503993
-0.00062432
-0.00528338
-0.000811828
-0.00553562
-0.00101133
-0.0058168
-0.00122254
-0.00613276
-0.00650993
-0.00144433
-1.03287e-05
-0.00132701
-7.04906e-05
-0.00304083
-0.000182438
-0.00405181
-0.0003322
-0.00457637
-0.00050441
-0.00486772
-0.000690401
-0.00509739
-0.000888111
-0.00533791
-0.00109868
-0.00560623
-0.00132268
-0.00590876
-0.00629014
-0.00154247
-1.73912e-05
-0.00130962
-9.01388e-05
-0.00296809
-0.000214985
-0.00392697
-0.000376
-0.00441536
-0.000558108
-0.00468561
-0.000753531
-0.00490197
-0.000960812
-0.00513063
-0.0011802
-0.00538685
-0.00140904
-0.00567992
-0.00601646
-0.00168272
-2.4323e-05
-0.00128529
-0.000109074
-0.00288333
-0.00024611
-0.00378993
-0.000417747
-0.00424372
-0.000609254
-0.0044941
-0.000813645
-0.00469758
-0.00102959
-0.00491468
-0.00125675
-0.00515969
-0.00149708
-0.00543959
-0.00574577
-0.00176777
-3.10642e-05
-0.00125423
-0.000127249
-0.00278715
-0.000275763
-0.00364142
-0.000457403
-0.00406208
-0.000657815
-0.00429369
-0.000870749
-0.00448464
-0.00109519
-0.00469023
-0.00133164
-0.00492325
-0.00158348
-0.00518775
-0.00547312
-0.00185613
-3.75765e-05
-0.00121665
-0.000144612
-0.00268011
-0.000303903
-0.00348213
-0.000494933
-0.00387105
-0.000703747
-0.00408488
-0.000924748
-0.00426364
-0.00115725
-0.00445773
-0.00140224
-0.00467826
-0.00166271
-0.00492728
-0.00519532
-0.00194051
-4.38293e-05
-0.00117282
-0.000161114
-0.00256283
-0.000330495
-0.00331275
-0.000530316
-0.00367123
-0.000747037
-0.00386816
-0.000975677
-0.004035
-0.00121591
-0.0042175
-0.00146899
-0.00442517
-0.0017373
-0.00465897
-0.0049111
-0.00202151
-4.97955e-05
-0.00112303
-0.000176718
-0.00243591
-0.00035551
-0.00313395
-0.000563531
-0.00346321
-0.000787666
-0.00364402
-0.00102351
-0.00379916
-0.00127104
-0.00396996
-0.00153164
-0.00416457
-0.00180727
-0.00438334
-0.00461996
-0.00209842
-5.54514e-05
-0.00106758
-0.000191388
-0.00229997
-0.000378925
-0.00294642
-0.000594565
-0.00324757
-0.000825624
-0.00341296
-0.00106822
-0.00355656
-0.00132262
-0.00371557
-0.00159023
-0.00389696
-0.00187282
-0.00410075
-0.00432183
-0.00217095
-6.07763e-05
-0.0010068
-0.000205098
-0.00215565
-0.000400719
-0.0027508
-0.000623409
-0.00302488
-0.000860904
-0.00317547
-0.00110981
-0.00330765
-0.00137061
-0.00345478
-0.00164476
-0.0036228
-0.00193395
-0.00381156
-0.00401691
-0.00223887
-6.5752e-05
-0.00094105
-0.000217824
-0.00200358
-0.000420881
-0.00254774
-0.000650056
-0.00279571
-0.000893498
-0.00293202
-0.00114825
-0.0030529
-0.00141499
-0.00318804
-0.00169522
-0.00334256
-0.00199061
-0.00351618
-0.00370553
-0.00230199
-7.0363e-05
-0.000870687
-0.000229548
-0.00184439
-0.000439398
-0.00233789
-0.000674503
-0.0025606
-0.000923401
-0.00268313
-0.00118353
-0.00279277
-0.00145573
-0.00291584
-0.00174158
-0.00305671
-0.00204273
-0.00321503
-0.0033881
-0.00236015
-7.4596e-05
-0.000796091
-0.000240255
-0.00167873
-0.000456264
-0.00212188
-0.000696748
-0.00232012
-0.00095061
-0.00242926
-0.00121564
-0.00252774
-0.00149283
-0.00263865
-0.00178381
-0.00276574
-0.00209024
-0.0029086
-0.00306511
-0.00241324
-7.84398e-05
-0.000717651
-0.000249933
-0.00150724
-0.000471474
-0.00190034
-0.000716792
-0.0020748
-0.000975127
-0.00217093
-0.00124458
-0.00225829
-0.00152626
-0.00235697
-0.00182187
-0.00247013
-0.00213309
-0.00259738
-0.00273706
-0.00246114
-8.18848e-05
-0.000635766
-0.000258573
-0.00133055
-0.000485026
-0.00167388
-0.000734638
-0.00182519
-0.000996954
-0.00190861
-0.00127034
-0.0019849
-0.00155602
-0.00207128
-0.00185574
-0.00217041
-0.00217122
-0.0022819
-0.00240451
-0.00250377
-8.49232e-05
-0.000550843
-0.000266167
-0.00114931
-0.000496919
-0.00144313
-0.000750291
-0.00157182
-0.0010161
-0.00164281
-0.00129293
-0.00170807
-0.00158211
-0.00178211
-0.00188541
-0.00186711
-0.0022046
-0.00196271
-0.00206803
-0.00254108
-8.75481e-05
-0.000463295
-0.000272709
-0.000964149
-0.000507152
-0.00120869
-0.000763755
-0.00131521
-0.00103257
-0.001374
-0.00131236
-0.00142827
-0.00160453
-0.00148994
-0.00191088
-0.00156076
-0.0022332
-0.00164039
-0.00172822
-0.00257301
-8.97535e-05
-0.000373541
-0.000278194
-0.000775708
-0.000515724
-0.000971158
-0.000775035
-0.0010559
-0.00104637
-0.00110266
-0.00132865
-0.00114599
-0.00162331
-0.00119528
-0.00193218
-0.00125189
-0.00225706
-0.0013155
-0.00138573
-0.00259956
-9.15339e-05
-0.000282008
-0.000282614
-0.000584628
-0.00052263
-0.000731142
-0.00078413
-0.000794403
-0.00105751
-0.00082928
-0.00134182
-0.000861686
-0.00163849
-0.000898609
-0.00194937
-0.000941016
-0.00227624
-0.000988637
-0.00104119
-0.00262078
-9.28844e-05
-0.000189123
-0.000285964
-0.000391548
-0.000527867
-0.000489239
-0.000791038
-0.000531232
-0.001066
-0.00055432
-0.00135187
-0.000575815
-0.00165012
-0.000600361
-0.00196254
-0.000628591
-0.00229088
-0.000660296
-0.000695241
-0.00263683
-9.38001e-05
-9.5323e-05
-0.000288236
-0.000197113
-0.000531423
-0.000246052
-0.000795744
-0.000266912
-0.00107181
-0.000278257
-0.0013588
-0.000288824
-0.0016582
-0.000300962
-0.00197179
-0.000315002
-0.00230122
-0.000330864
-0.000348343
-0.00264812
-9.42767e-05
-1.04637e-06
-0.00028942
-1.96897e-06
-0.000533286
-2.18546e-06
-0.000798228
-1.96963e-06
-0.00107491
-1.57745e-06
-0.00136256
-1.17637e-06
-0.00166268
-8.38687e-07
-0.00197709
-5.92537e-07
-0.0023075
-4.55814e-07
-4.62759e-07
-0.00265538
-9.43103e-05
9.32639e-05
-0.00028951
0.00019323
-0.000533442
0.000241747
-0.000798464
0.000263053
-0.00107525
0.000275207
-0.00136304
0.000286616
-0.00166338
0.000299495
-0.00197811
0.000314143
-0.00230905
0.000330479
0.000348446
-0.00265795
-9.38986e-05
0.000187162
-0.000288497
0.000387829
-0.000531876
0.000485127
-0.000796427
0.000527603
-0.00107278
0.000551564
-0.00136016
0.000573995
-0.00166008
0.000599412
-0.00197437
0.000628436
-0.00230478
0.000660889
0.000696576
-0.00265291
-9.30404e-05
0.000280203
-0.000286378
0.000581167
-0.000528582
0.00072733
-0.000792103
0.000791124
-0.00106749
0.000826952
-0.00135389
0.000860396
-0.00165278
0.000898303
-0.00196596
0.000941613
-0.00229512
0.000990053
0.00104329
-0.00264184
-9.17367e-05
0.00037194
-0.000283153
0.000772583
-0.000523555
0.000967731
-0.000785488
0.00105306
-0.00105937
0.00110084
-0.00134425
0.00114527
-0.00164155
0.0011956
-0.00195304
0.00125311
-0.00228043
0.00131744
0.00138813
-0.00262527
-8.99902e-05
0.00046193
-0.000278824
0.000961417
-0.000516798
0.0012057
-0.000776588
0.00131285
-0.00104844
0.00137269
-0.00133127
0.0014281
-0.00162645
0.00149078
-0.00193573
0.00156239
-0.00226084
0.00164255
0.0017306
-0.00260331
-8.78054e-05
0.000549735
-0.000273397
0.00114701
-0.000508317
0.00144062
-0.000765412
0.00156994
-0.00103472
0.001642
-0.00131499
0.00170837
-0.00160754
0.00178333
-0.00191411
0.00186896
-0.00223644
0.00196487
0.00207019
-0.00257602
-8.51883e-05
0.000634923
-0.00026688
0.0013287
-0.000498119
0.00167186
-0.000751971
0.0018238
-0.00101823
0.00190826
-0.00129544
0.00198558
-0.00158487
0.00207275
-0.00188823
0.00217233
-0.00220728
0.00228392
0.00240636
-0.00254345
-8.21466e-05
0.00071707
-0.000259282
0.00150584
-0.000486215
0.0018988
-0.000736278
0.00207386
-0.000998986
0.00217097
-0.00127266
0.00225926
-0.00155847
0.00235857
-0.00185814
0.00247199
-0.0021734
0.00259918
0.00273859
-0.00250563
-7.8689e-05
0.000795759
-0.000250615
0.00167776
-0.000472615
0.0021208
-0.000718345
0.00231959
-0.000977007
0.00242963
-0.00124666
0.00252891
-0.00152839
0.00264029
-0.00182387
0.00276747
-0.00213484
0.00291015
0.00306633
-0.00246259
-7.48258e-05
0.000870585
-0.000240893
0.00184383
-0.00045733
0.00233724
-0.000698181
0.00256044
-0.000952309
0.00268376
-0.00121747
0.00279407
-0.00149464
0.00291746
-0.00178545
0.00305828
-0.00209164
0.00321634
0.00338907
-0.00241438
-7.05687e-05
0.000941154
-0.000230129
0.00200339
-0.000440371
0.00254748
-0.000675797
0.00279587
-0.000924905
0.00293287
-0.00118511
0.00305428
-0.00145724
0.00318959
-0.00174292
0.00334396
-0.00204384
0.00351726
0.00370629
-0.00236106
-6.59309e-05
0.00100708
-0.000218341
0.0021558
-0.00042175
0.00275089
-0.000651203
0.00302532
-0.000894806
0.00317647
-0.00114959
0.00330906
-0.00141623
0.00345623
-0.0016963
0.00362402
-0.00199149
0.00381246
0.00401753
-0.00230273
-6.09273e-05
0.00106801
-0.000205547
0.00230042
-0.00040148
0.00294682
-0.000624406
0.00324824
-0.000862023
0.00341409
-0.00111093
0.00355797
-0.00137162
0.00371692
-0.00164562
0.00389802
-0.00193465
0.00410149
0.00432238
-0.00223949
-5.55749e-05
0.00112359
-0.000191769
0.00243661
-0.000379577
0.00313463
-0.000595417
0.00346408
-0.000826566
0.00364523
-0.00106914
0.00380054
-0.00132343
0.00397121
-0.0015909
0.00416549
-0.00187337
0.00438397
0.00462049
-0.00217149
-4.98927e-05
0.00117348
-0.000177033
0.00256375
-0.000356059
0.00331365
-0.000564246
0.00367227
-0.000788445
0.00386943
-0.00102425
0.00403635
-0.00127168
0.00421863
-0.00153215
0.00442596
-0.0018077
0.00465952
0.0049117
-0.0020989
-4.39022e-05
0.00121738
-0.000161368
0.00268122
-0.000330947
0.00348323
-0.000530905
0.00387223
-0.000747669
0.0040862
-0.000976266
0.00426494
-0.0012164
0.00445877
-0.00146937
0.00467894
-0.00173761
0.00492776
0.00519603
-0.00202195
-3.76276e-05
0.00125501
-0.000144808
0.0027884
-0.000304265
0.00364269
-0.000495409
0.00406337
-0.00070425
0.00429504
-0.000925203
0.0044859
-0.00115762
0.00469119
-0.00140252
0.00492384
-0.00166292
0.00518816
0.00547401
-0.0019409
-3.1096e-05
0.00128611
-0.000127395
0.0028847
-0.000276045
0.00379134
-0.000457777
0.0042451
-0.000658206
0.00449547
-0.000871089
0.00469878
-0.00109545
0.00491555
-0.00133181
0.0051602
-0.00158356
0.00543991
0.00574682
-0.00185638
-2.43383e-05
0.00131044
-0.000109175
0.00296953
-0.00024632
0.00392848
-0.000418032
0.00441682
-0.000609548
0.00468698
-0.000813892
0.00490312
-0.00102977
0.00513142
-0.00125689
0.00538732
-0.00149723
0.00568024
0.00601746
-0.00176786
-1.73926e-05
0.00132784
-9.02003e-05
0.00304234
-0.000215134
0.00405342
-0.000376208
0.00457789
-0.000558322
0.0048691
-0.0007537
0.0050985
-0.000960904
0.00533863
-0.00118021
0.00560662
-0.00140899
0.00590902
0.00629037
-0.0016819
-1.03186e-05
0.00133815
-7.05189e-05
0.00310254
-0.000182533
0.00416543
-0.000332344
0.0047277
-0.000504557
0.00504131
-0.000690512
0.00528446
-0.000888162
0.00553628
-0.00109867
0.00581713
-0.0013227
0.00613305
0.00651058
-0.00154291
-3.29504e-06
0.00134145
-5.01413e-05
0.00314939
-0.000148582
0.00426387
-0.000286487
0.00486561
-0.000448281
0.0052031
-0.000624393
0.00546057
-0.000811875
0.00572376
-0.00101138
0.00601664
-0.00122272
0.00634438
0.00673247
-0.0014446
4.15249e-06
0.0013373
-2.89504e-05
0.00318249
-0.000113374
0.0043483
-0.0002387
0.00499093
-0.000389551
0.00535395
-0.000555473
0.00562649
-0.000732619
0.00590091
-0.000921375
0.0062054
-0.00112324
0.00654625
0.00694497
-0.00133575
1.16563e-05
0.00132564
-6.14105e-06
0.00320029
-7.70789e-05
0.00441923
-0.000189024
0.00510288
-0.00032845
0.00549338
-0.000483879
0.00578192
-0.000650638
0.00606766
-0.000828813
0.00638357
-0.00102004
0.00673748
0.00714631
-0.00122137
1.86459e-05
0.00130699
1.44616e-05
0.00320447
-3.98916e-05
0.00447359
-0.000137517
0.0052005
-0.000265097
0.00562096
-0.00040967
0.00592649
-0.00056586
0.00622385
-0.000733302
0.00655101
-0.000913436
0.00691761
0.00733633
-0.00110346
2.54006e-05
0.00128159
3.5589e-05
0.00319428
7.39236e-07
0.00450844
-8.43772e-05
0.00528562
-0.000199561
0.00573615
-0.000332865
0.0060598
-0.000478225
0.00636921
-0.000634683
0.00670747
-0.000803469
0.00708639
0.00751526
-0.000982404
3.20489e-05
0.00124955
5.69084e-05
0.00316943
3.71622e-05
0.00452818
-3.02907e-05
0.00535307
-0.000131908
0.00583776
-0.000253528
0.00618142
-0.000387764
0.00650345
-0.00053298
0.00685269
-0.000690088
0.0072435
0.00768261
-0.000857435
3.844e-05
0.00121111
7.8246e-05
0.00312962
7.64034e-05
0.00453003
2.54357e-05
0.00540404
-6.23089e-05
0.00592551
-0.000171749
0.00629086
-0.00029454
0.00662624
-0.00042826
0.00698641
-0.000573397
0.00738864
0.00783766
-0.000728447
4.44982e-05
0.00116661
9.94122e-05
0.00307471
0.000116041
0.0045134
8.22233e-05
0.00543786
9.13671e-06
0.00599859
-8.76131e-05
0.00638761
-0.000198609
0.00673724
-0.000320584
0.00710838
-0.000453534
0.00752159
0.00797994
-0.000595814
5.01337e-05
0.00111647
0.000120105
0.00300473
0.000155745
0.00447776
0.000140146
0.00545346
8.24464e-05
0.00605629
-1.86183e-06
0.00647191
-0.000100091
0.00683547
-0.00021004
0.00721833
-0.000330619
0.00764217
0.0081092
-0.000459885
5.52494e-05
0.00106122
0.000140042
0.00291994
0.000195237
0.00442256
0.000198764
0.00544993
0.000157428
0.00609763
8.72939e-05
0.00654205
-4.07447e-07
0.00692317
-9.68252e-05
0.00731475
-0.000204698
0.00775004
0.00822545
-0.000320946
5.97571e-05
0.00100147
0.000158954
0.00282074
0.000234148
0.00434737
0.000257754
0.00542633
0.000233711
0.00612167
0.000178059
0.0065977
0.000104426
0.0069968
1.86135e-05
0.00740056
-7.52925e-05
0.00784395
0.00832983
-0.000179666
6.35787e-05
0.000937888
0.000176561
0.00270776
0.000272056
0.00425187
0.000316717
0.00538166
0.000311023
0.00612737
0.000270598
0.00663813
0.000210143
0.00705726
0.000137905
0.0074728
5.63474e-05
0.00792551
0.00842412
-3.79502e-05
6.66455e-05
0.000871243
0.000192569
0.00258184
0.000308489
0.00413595
0.000375173
0.00531498
0.000388986
0.00611355
0.000364656
0.00666246
0.000317985
0.00710393
0.000258602
0.00753218
0.000190022
0.00799409
0.00850128
0.000112865
6.89009e-05
0.000802342
0.000206667
0.00244407
0.000342931
0.00399969
0.00043256
0.00522535
0.000467142
0.00607897
0.000459938
0.00666966
0.000427703
0.00713616
0.000381627
0.00757826
0.000326873
0.00804884
0.00856314
0.000265014
7.03055e-05
0.000732036
0.000218552
0.00229583
0.000374818
0.00384342
0.00048823
0.00511194
0.000544936
0.00602227
0.00055606
0.00665854
0.000539028
0.0071532
0.00050672
0.00761057
0.000465645
0.00808992
0.00861077
0.000418013
7.084e-05
0.000661196
0.000227955
0.00213871
0.000403548
0.00366783
0.000541439
0.00497405
0.000621695
0.00594201
0.000652524
0.00662771
0.000651601
0.00715412
0.000633473
0.00762869
0.000606071
0.00811732
0.00864446
0.000572379
7.05057e-05
0.000590691
0.000234637
0.00197458
0.00042849
0.00347398
0.000591341
0.0048112
0.000696612
0.00583674
0.00074871
0.00657561
0.000764988
0.00713784
0.000761557
0.00763212
0.000747987
0.00813089
0.00866429
0.000728161
6.93249e-05
0.000521366
0.000238409
0.0018055
0.000449003
0.00326338
0.000636991
0.00462321
0.00076873
0.005705
0.000843856
0.00650048
0.000878678
0.00710302
0.000890659
0.00762014
0.000891205
0.00813034
0.00867023
0.000885268
6.73425e-05
0.000454023
0.00023915
0.00163369
0.000464467
0.00303807
0.000677361
0.00441031
0.000836935
0.00554543
0.000937034
0.00640038
0.000992034
0.00704802
0.00102039
0.00759178
0.00103548
0.00811526
0.00866217
0.00104354
6.4625e-05
0.000389398
0.000236826
0.00146149
0.000474321
0.00280057
0.000711359
0.00417328
0.000899946
0.00535684
0.00102712
0.00627322
0.00110425
0.00697088
0.00115026
0.00754578
0.0011805
0.00808502
0.0086399
0.00120276
6.12601e-05
0.000328138
0.000231503
0.00129124
0.000478114
0.00255396
0.000737868
0.00391352
0.000956316
0.00513839
0.00111274
0.00611679
0.0012143
0.00686932
0.00127959
0.00748049
0.00132584
0.00803876
0.00860305
0.00136269
5.73516e-05
0.000270787
0.000223351
0.00112524
0.000475555
0.00230176
0.000755804
0.00363327
0.00100445
0.00488974
0.00119229
0.00592896
0.0013209
0.00674071
0.00140752
0.00739386
0.001471
0.00797529
0.00855106
0.001523
5.30165e-05
0.00021777
0.000212647
0.000965613
0.00046657
0.00204783
0.000764192
0.00333565
0.00104265
0.00461129
0.00126388
0.00570773
0.00142244
0.00658216
0.00153295
0.00728335
0.00161527
0.00789296
0.0084831
0.00168323
4.83792e-05
0.000169391
0.000199758
0.000814234
0.000451341
0.00179625
0.000762272
0.00302472
0.00106918
0.00430438
0.00132536
0.00545155
0.00151695
0.00639056
0.00165441
0.00714589
0.00175774
0.00778964
0.00839802
0.00184282
4.35653e-05
0.000125826
0.000185124
0.000672676
0.000430333
0.00155104
0.000749605
0.00270545
0.00108238
0.0039716
0.00137437
0.00515956
0.00160209
0.00616285
0.00177004
0.00697794
0.00189715
0.00766253
0.00829416
0.00200101
3.86959e-05
8.71298e-05
0.000169227
0.000542144
0.000404284
0.00131598
0.000726201
0.00238353
0.00108083
0.00361696
0.0014084
0.004832
0.00167507
0.00589617
0.00187748
0.00677552
0.00203186
0.00750815
0.00816923
0.00215679
3.38825e-05
5.32473e-05
0.000152565
0.000423462
0.00037416
0.00109439
0.000692605
0.00206509
0.00106353
0.00324604
0.00142493
0.0044706
0.00173272
0.00558839
0.0019738
0.00653444
0.00215966
0.00732228
0.0080201
0.0023088
2.92217e-05
2.40256e-05
0.000135616
0.000317068
0.000341084
0.000888921
0.00064994
0.00175623
0.00103013
0.00286585
0.00142169
0.00407903
0.00177159
0.00523849
0.00205543
0.00625059
0.00227768
0.00710003
0.00784266
0.00245512
2.47934e-05
-7.67729e-07
0.000118817
0.000223045
0.00030624
0.000701498
0.000599859
0.00146261
0.000981146
0.00248457
0.00139696
0.00366322
0.00178814
0.00484731
0.00211824
0.00592049
0.00238224
0.00683603
0.00763172
0.00259319
2.06598e-05
-2.14275e-05
0.000102544
0.00014116
0.000270783
0.00053326
0.000544411
0.00118898
0.000918118
0.00211086
0.00134992
0.00323142
0.00177907
0.00441816
0.00215759
0.00554197
0.00246876
0.00652486
0.00738094
0.00271954
1.68616e-05
-3.82891e-05
8.71061e-05
7.09156e-05
0.000235759
0.000384608
0.000485843
0.000938898
0.000843563
0.00175314
0.00128109
0.00279389
0.00174177
0.00395748
0.00216862
0.00511512
0.00253175
1.34279e-05
-5.1717e-05
7.27383e-05
1.16052e-05
0.000202055
0.000255291
0.000426377
0.000714575
0.000760793
0.00141872
0.00119257
0.00236211
0.001675
0.00347504
0.00464332
1.03743e-05
-6.20913e-05
5.96133e-05
-3.76338e-05
0.000170381
0.000144524
0.000368022
0.000516934
0.000673553
0.00111319
0.00108812
0.00194755
0.00157948
0.00298368
7.70851e-06
-6.97998e-05
4.78488e-05
-7.77741e-05
0.000141271
5.11012e-05
0.000312457
0.000345748
0.000585578
0.000840073
0.000972837
0.00156029
5.4324e-06
-7.52322e-05
3.75172e-05
-0.000109859
0.000115102
-2.64832e-05
0.000260982
0.000199867
0.000500219
0.000600837
3.54383e-06
-7.87761e-05
2.86519e-05
-0.000134967
9.21023e-05
-8.99336e-05
0.000214516
7.74535e-05
2.03555e-06
-8.08116e-05
2.12487e-05
-0.00015418
7.2372e-05
-0.000141057
-2.3793e-05
8.94357e-07
-8.1706e-05
1.52617e-05
-0.000168547
5.58802e-05
-0.000181675
1.13951e-07
-8.18199e-05
1.05976e-05
-0.000179031
-4.45814e-07
-8.13741e-05
-0.000186583
-7.07612e-07
-8.06665e-05
-7.98851e-05
0.00686456
0.00114772
-0.00680965
0.00691803
0.00130907
0.00696984
0.00147102
0.00701969
0.00163319
0.00706714
0.00179515
0.00711146
0.00195643
0.00715157
0.0021164
0.00718577
0.00227426
0.00721161
0.00242892
0.0072255
0.00257887
0.00272206
0.00703064
0.00109254
-0.00697546
0.00708536
0.00125435
0.00713955
0.00141684
0.00719305
0.00157969
0.00724562
0.00174258
0.00729692
0.00190514
0.00734636
0.00206696
0.00739309
0.00222753
0.00743581
0.0023862
0.00747257
0.00254211
0.00269404
0.00720551
0.00103926
-0.00715224
0.00725927
0.00120059
0.00731352
0.00136259
0.00736822
0.001525
0.00742325
0.00168754
0.00747846
0.00184993
0.00753357
0.00201185
0.00758816
0.00217294
0.00764161
0.00233275
0.007693
0.00249072
0.00264612
0.00739299
0.000988359
-0.00734208
0.00744493
0.00114865
0.007498
0.00130953
0.00755224
0.00147075
0.00760769
0.00163209
0.00766433
0.00179329
0.00772211
0.00195408
0.00778086
0.00211418
0.00784034
0.00227327
0.00790012
0.00243094
0.0025868
0.00759279
0.000939565
-0.007544
0.00764297
0.00109847
0.00769464
0.00125786
0.00774788
0.00141751
0.00780279
0.00157718
0.00785943
0.00173664
0.00791786
0.00189566
0.00797805
0.00205399
0.0080399
0.00221141
0.00810323
0.00236761
0.00252243
0.00780297
0.000892475
-0.00775588
0.00785168
0.00104975
0.00790212
0.00120742
0.00795438
0.00136526
0.00800854
0.00152302
0.00806468
0.00168049
0.00812287
0.00183746
0.00818316
0.00199371
0.00824554
0.00214904
0.00830998
0.00230317
0.00245602
0.00802302
0.000847066
-0.00797761
0.00807032
0.00100245
0.00811958
0.00115816
0.00817088
0.00131396
0.00822429
0.00146962
0.00827986
0.00162492
0.00833767
0.00177966
0.00839777
0.0019336
0.00846023
0.00208657
0.00852512
0.00223828
0.00238865
0.00825195
0.000803222
-0.0082081
0.00829792
0.000956478
0.00834609
0.00110999
0.00839651
0.00126354
0.00844923
0.0014169
0.0085043
0.00156984
0.0085618
0.00172217
0.00862175
0.00187364
0.00868424
0.00202409
0.00874929
0.00217323
0.00232098
0.00848955
0.00076088
-0.0084472
0.00853424
0.000911788
0.00858133
0.0010629
0.00863087
0.001214
0.00868291
0.00136486
0.00873749
0.00151527
0.00879464
0.00166502
0.0088544
0.00181389
0.0089168
0.00196169
0.00898184
0.00210819
0.00225324
0.00873548
0.000719968
-0.00869456
0.00877893
0.000868338
0.00882496
0.00101686
0.00887363
0.00116533
0.00892496
0.00131352
0.00897899
0.00146123
0.00903575
0.00160826
0.00909526
0.00175438
0.00915753
0.00189941
0.00922259
0.00204313
0.00218535
0.00898978
0.000680472
-0.00895029
0.00903199
0.000826131
0.00907695
0.000971901
0.00912471
0.00111757
0.0091753
0.00126294
0.00922874
0.00140779
0.00928505
0.00155194
0.00934427
0.00169516
0.00940641
0.00183728
0.00947147
0.00197806
0.00211734