/*--------------------------------*- C++ -*----------------------------------*\
  =========                 |
  \\      /  F ield         | OpenFOAM: The Open Source CFD Toolbox
   \\    /   O peration     | Website:  https://openfoam.org
    \\  /    A nd           | Version:  7
     \\/     M anipulation  |
\*---------------------------------------------------------------------------*/
FoamFile
{
    version     2.0;
    format      ascii;
    class       volVectorField;
    location    "10";
    object      U;
}
// * * * * * * * * * * * * * * * * * * * * * * * * * * * * * * * * * * * * * //

dimensions      [0 1 -1 0 0 0 0];

internalField   nonuniform List<vector> 
6386
(
(-0.0133129 0.0185573 9.53825e-20)
(-0.0142245 0.018138 2.14577e-19)
(-0.0151353 0.0176892 9.58686e-20)
(-0.0160231 0.0172027 -4.64875e-19)
(-0.0338771 0.0379946 2.88933e-19)
(-0.0168486 0.0166556 1.52667e-20)
(-0.0339144 0.0356723 -2.87657e-19)
(-0.0175499 0.016014 -3.60718e-20)
(-0.0331737 0.0330956 3.38494e-19)
(-0.0294208 0.0408881 -3.47959e-20)
(-0.018052 0.0152515 -2.16428e-19)
(-0.0314229 0.0302395 3.06495e-19)
(-0.0220824 0.03633 -1.77707e-19)
(0.0115864 0.0369331 2.48391e-19)
(-0.0182744 0.0143385 3.99649e-19)
(-0.0284046 0.0270761 -4.32177e-19)
(-0.0120404 0.0315854 -9.8746e-20)
(0.0325323 0.0315345 -4.64208e-19)
(-0.0181162 0.0132447 -8.18831e-20)
(-0.0238435 0.0235979 1.49136e-20)
(0.00115178 0.0267316 -2.36303e-19)
(0.0586199 0.0265056 -7.71848e-20)
(0.151576 0.0270453 3.39769e-19)
(-0.0174656 0.0119515 4.50518e-19)
(-0.0174462 0.0198226 -2.42425e-19)
(0.0179379 0.0218829 2.45382e-19)
(0.0903579 0.022101 8.66302e-20)
(0.202548 0.0250118 -1.26278e-19)
(0.354686 0.0342276 -6.22062e-20)
(-0.0162033 0.0104548 -2.40605e-19)
(-0.00890935 0.0158014 5.81788e-19)
(0.0387426 0.0172021 -1.63681e-19)
(0.128149 0.0186306 4.1509e-20)
(0.261139 0.0249774 7.61656e-19)
(0.434649 0.0397504 -3.38497e-19)
(0.634972 0.0641387 -3.07004e-19)
(-0.0142041 0.00876715 1.06075e-19)
(0.00207014 0.0116269 5.26596e-20)
(0.0639495 0.0129094 6.91443e-20)
(0.172241 0.0164624 -1.14369e-19)
(0.32696 0.0273945 -1.35548e-19)
(0.520096 0.0486003 -5.22996e-19)
(0.73017 0.078932 7.06285e-20)
(0.92656 0.110474 8.91336e-20)
(-0.0113397 0.00691873 -8.83345e-20)
(0.015784 0.0074374 -7.28297e-19)
(0.0938739 0.00928522 4.99268e-19)
(0.222673 0.0160132 2.29371e-19)
(0.39915 0.0326727 -3.59303e-19)
(0.608609 0.0607809 -5.41362e-20)
(0.821898 0.096201 4.134e-19)
(1.00667 0.129549 6.90292e-19)
(1.14296 0.157337 1.89402e-20)
(-0.00748161 0.00495869 -1.31836e-19)
(0.0324989 0.00341807 2.61562e-19)
(0.128731 0.00666634 -6.44717e-19)
(0.279216 0.0177252 -2.32294e-19)
(0.476357 0.041112 2.43088e-19)
(0.697448 0.0760419 1.33669e-19)
(0.907271 0.115214 -4.72501e-19)
(1.07551 0.148667 -3.34284e-19)
(1.18969 0.173246 -4.22135e-19)
(1.25411 0.1804 2.48812e-19)
(-0.00250514 0.0029553 5.04342e-20)
(0.0524395 -0.000200904 4.73093e-19)
(0.168599 0.00543477 2.37537e-19)
(0.341322 0.022027 2.57706e-19)
(0.556798 0.0528395 -9.01173e-20)
(0.783889 0.093931 4.32591e-19)
(0.984249 0.135273 -3.75796e-20)
(1.13287 0.167377 2.42879e-19)
(1.22546 0.188156 4.68628e-19)
(1.27292 0.192508 -2.15339e-19)
(0.00370741 0.000994727 -1.44634e-19)
(0.0757711 -0.00314922 -2.87098e-19)
(0.213387 0.00599999 -1.8585e-19)
(0.408109 0.0292837 1.83319e-19)
(0.638407 0.0677815 3.76475e-20)
(0.865563 0.113893 -3.69174e-19)
(1.05169 0.155804 8.51788e-20)
(1.17931 0.185414 1.05847e-19)
(1.25186 0.202078 6.5583e-20)
(1.28486 0.203661 8.07993e-20)
(0.0112585 -0.000817501 9.78212e-20)
(0.10258 -0.00512234 2.60705e-19)
(0.262804 0.00877478 2.56402e-19)
(0.478375 0.0397484 -3.19328e-19)
(0.719056 0.0856839 -2.28953e-19)
(0.940667 0.135366 1.38236e-19)
(1.10923 0.17638 2.26624e-19)
(1.21582 0.202662 -5.7301e-20)
(1.2705 0.215117 -2.38321e-19)
(1.29161 0.214113 -6.45263e-20)
(0.0202278 -0.00235974 6.29238e-20)
(0.132856 -0.00579386 -1.27134e-20)
(0.316344 0.0141453 -1.18156e-19)
(0.550673 0.0535282 -1.81797e-20)
(0.796771 0.106171 -1.93778e-20)
(1.00803 0.157851 1.74483e-19)
(1.15711 0.196716 -2.79764e-19)
(1.24362 0.219112 -1.74966e-19)
(1.28287 0.227425 -5.80386e-21)
(1.29444 0.224085 1.1843e-19)
(0.0306687 -0.00349668 2.95787e-19)
(0.166474 -0.00482706 -5.61174e-20)
(0.373284 0.0224394 -9.35244e-20)
(0.623425 0.0705775 -1.49816e-20)
(0.869898 0.128811 -4.39483e-20)
(1.06705 0.180938 -1.91647e-19)
(1.19594 0.216644 1.19834e-19)
(1.26399 0.234822 -1.65759e-19)
(1.29024 0.23917 1.07477e-19)
(1.29434 0.233761 2.98798e-19)
(0.0425991 -0.00408195 -1.27832e-19)
(0.203191 -0.00189031 -2.67722e-19)
(0.432714 0.0338977 -3.3695e-20)
(0.695054 0.0907183 3.21901e-19)
(0.93719 0.153174 1.01267e-19)
(1.11761 0.204311 2.21174e-19)
(1.22656 0.236085 3.62974e-19)
(1.2781 0.24989 8.0292e-20)
(1.29366 0.25051 8.26669e-20)
(1.29202 0.243277 -2.20633e-19)
(0.0559967 -0.00396264 1.14308e-20)
(0.242634 0.00332545 1.83275e-19)
(0.493579 0.0486537 1.91165e-19)
(0.7641 0.113676 -2.06683e-19)
(0.997808 0.178859 2.59724e-19)
(1.15994 0.227737 -2.25332e-19)
(1.24987 0.255016 -4.94178e-20)
(1.28702 0.264424 -7.51427e-20)
(1.29396 0.26158 -7.90664e-20)
(1.28797 0.252727 -1.15663e-19)
(0.0707944 -0.00298467 -1.20378e-20)
(0.284311 0.0110883 -1.86807e-20)
(0.554743 0.0667256 -1.38315e-20)
(0.829309 0.139115 -1.11817e-20)
(1.05128 0.205511 5.35897e-20)
(1.19446 0.251049 5.94295e-20)
(1.26678 0.273453 -6.22238e-20)
(1.29164 0.278533 -4.46387e-20)
(1.29177 0.272485 -4.92774e-20)
(1.28254 0.262167 1.50844e-19)
(0.0868781 -0.000998856 -1.90868e-20)
(0.327624 0.0216082 4.97769e-20)
(0.615055 0.0880215 7.88856e-20)
(0.889674 0.166673 -2.4434e-20)
(1.09744 0.232824 -1.76384e-19)
(1.22176 0.27413 -1.37129e-19)
(1.27815 0.291431 -5.2037e-21)
(1.29272 0.292307 1.03313e-19)
(1.28756 0.283299 -1.61265e-20)
(1.27596 0.271617 -4.18723e-20)
(0.104087 0.0021324 -5.10172e-20)
(0.371887 0.035022 2.7486e-20)
(0.673415 0.112353 -2.96471e-20)
(0.944444 0.19598 6.55072e-21)
(1.13634 0.260532 2.13578e-20)
(1.24246 0.296896 3.00443e-20)
(1.28472 0.308985 -5.33095e-21)
(1.29083 0.305815 -6.15276e-20)
(1.28167 0.294061 3.64458e-21)
(1.26835 0.281072 2.03197e-20)
(0.122215 0.0065283 -1.696e-20)
(0.416357 0.0513845 -5.30908e-23)
(0.728821 0.139455 4.27885e-21)
(0.993107 0.226668 -4.13188e-21)
(1.1682 0.288403 2.84809e-20)
(1.25717 0.319285 9.53332e-21)
(1.28715 0.326146 5.31263e-21)
(1.28643 0.319103 -2.05111e-21)
(1.27431 0.304783 -8.84555e-21)
(1.25983 0.290502 -1.89719e-20)
(0.141018 0.0122831 -8.04269e-21)
(0.460265 0.0706636 -2.44339e-20)
(0.780405 0.169 1.83892e-20)
(1.03536 0.258382 -1.82757e-21)
(1.19332 0.316235 1.72641e-20)
(1.26649 0.341241 1.54533e-20)
(1.28598 0.342931 1.20458e-20)
(1.27987 0.332187 -9.46926e-21)
(1.26565 0.315447 -9.60752e-21)
(1.25042 0.299863 -1.54043e-20)
(0.160217 0.0194603 -2.84766e-20)
(0.502845 0.0927416 -2.82738e-20)
(0.827451 0.20062 -1.79489e-20)
(1.07107 0.290778 -1.71797e-20)
(1.21209 0.343842 3.58325e-20)
(1.27096 0.362713 5.03022e-20)
(1.28165 0.359336 -6.4544e-21)
(1.2714 0.345058 -4.64518e-20)
(1.2558 0.326013 -7.51971e-21)
(1.24017 0.3091 -6.76562e-21)
(0.179508 0.028088 -3.25299e-20)
(0.543366 0.117421 1.55218e-20)
(0.869397 0.233917 4.30119e-20)
(1.10023 0.323524 1.57932e-20)
(1.2249 0.371051 -2.21988e-19)
(1.27107 0.383642 -2.70671e-20)
(1.27453 0.375342 -2.84502e-20)
(1.26122 0.357686 8.15095e-20)
(1.2448 0.33642 -3.06242e-20)
(1.2291 0.318146 -1.42762e-20)
(0.198574 0.0381562 3.20703e-20)
(0.581155 0.144432 -7.25679e-20)
(0.905832 0.268473 -1.3281e-19)
(1.12296 0.356304 3.79325e-20)
(1.23216 0.397699 1.05289e-19)
(1.26725 0.403961 2.07893e-20)
(1.2649 0.390906 1.51575e-20)
(1.24944 0.370013 -3.19907e-20)
(1.23272 0.346588 -3.94275e-20)
(1.21722 0.326925 9.37109e-20)
(0.217089 0.0496151 6.9263e-20)
(0.615616 0.173446 3.10534e-19)
(0.93648 0.303864 4.84835e-20)
(1.13942 0.388809 -1.90994e-19)
(1.23427 0.423623 1.00389e-19)
(1.25986 0.423592 -1.39286e-20)
(1.25299 0.40597 -1.59093e-19)
(1.23618 0.381968 1.26658e-20)
(1.21955 0.356421 -3.35412e-20)
(1.2045 0.335349 -7.11657e-20)
(0.234734 0.062376 -2.90236e-19)
(0.646238 0.204083 -3.28811e-19)
(0.961187 0.339661 -5.40926e-20)
(1.14985 0.420743 4.74389e-19)
(1.23162 0.448663 -1.97206e-20)
(1.24923 0.442447 2.77655e-19)
(1.239 0.42046 1.78841e-19)
(1.22149 0.39347 1.41673e-19)
(1.2053 0.36583 2.59481e-20)
(1.19082 0.343339 -8.15221e-20)
(0.251202 0.076313 2.726e-19)
(0.672611 0.235926 -2.73676e-19)
(0.979909 0.375436 1.69182e-19)
(1.15454 0.451819 -1.75973e-19)
(1.22457 0.472658 4.14274e-20)
(1.23565 0.460424 -2.00231e-19)
(1.22307 0.434291 1.33442e-20)
(1.20545 0.404439 -1.94673e-20)
(1.18996 0.374768 2.76343e-20)
(1.176 0.350842 1.38272e-19)
(0.266208 0.0912669 2.18203e-20)
(0.694422 0.268533 8.51551e-20)
(0.992688 0.410769 -1.22373e-19)
(1.15378 0.481761 -4.73594e-20)
(1.21346 0.495442 -8.65833e-20)
(1.21937 0.477411 1.79486e-19)
(1.20534 0.447358 -2.19277e-19)
(1.1881 0.414782 -7.00331e-20)
(1.17359 0.383238 3.00252e-20)
(1.16012 0.357815 -4.31988e-20)
(0.279496 0.107049 3.88097e-20)
(0.71146 0.301448 1.46448e-19)
(0.999641 0.445252 5.4082e-19)
(1.14789 0.510304 -3.94163e-19)
(1.19862 0.516853 -1.72787e-19)
(1.20058 0.493285 -8.28251e-20)
(1.18589 0.459544 2.0862e-19)
(1.16953 0.424374 6.74742e-20)
(1.15622 0.391172 -1.06684e-19)
(1.14358 0.364103 -4.04329e-20)
(0.290847 0.123444 -1.10744e-19)
(0.723606 0.334213 -2.44062e-19)
(1.00095 0.478489 -4.01557e-19)
(1.13721 0.537191 3.10419e-19)
(1.18034 0.536731 7.5584e-21)
(1.17948 0.507924 -1.95181e-19)
(1.16483 0.470711 7.95173e-20)
(1.14986 0.43312 -6.63492e-21)
(1.13782 0.398341 4.64144e-20)
(1.1265 0.369751 -1.06532e-20)
(0.30008 0.140221 -6.06595e-20)
(0.730826 0.366374 4.07298e-19)
(0.996841 0.510104 4.63997e-19)
(1.12207 0.562181 1.04574e-19)
(1.15893 0.554921 -7.43062e-20)
(1.15625 0.521204 3.87274e-19)
(1.14241 0.480744 -1.26242e-19)
(1.12909 0.440895 4.63614e-20)
(1.11842 0.404659 1.50104e-19)
(1.10877 0.374573 2.68441e-20)
(0.307058 0.157132 -2.43763e-19)
(0.73316 0.397493 1.22091e-19)
(0.9876 0.539737 -3.71614e-19)
(1.10284 0.585046 -1.59308e-19)
(1.13466 0.571271 8.77503e-20)
(1.13118 0.532962 1.27616e-21)
(1.1187 0.489532 -2.10636e-19)
(1.10719 0.447613 -1.02887e-19)
(1.09818 0.409994 -9.11561e-20)
(1.09038 0.378492 -3.12515e-20)
(0.311688 0.173928 -1.7806e-19)
(0.730724 0.427152 -4.66679e-19)
(0.97356 0.567055 3.48509e-19)
(1.07986 0.605558 1.83017e-21)
(1.10781 0.585605 6.63966e-20)
(1.1044 0.543086 -1.7074e-19)
(1.09372 0.496937 1.87529e-19)
(1.08434 0.453166 1.14046e-19)
(1.07715 0.414262 2.65948e-20)
(1.07139 0.381426 1.24967e-21)
(0.31392 0.190359 1.90594e-19)
(0.723726 0.454959 3.95824e-20)
(0.955137 0.591796 -2.94902e-19)
(1.05339 0.623474 6.39283e-20)
(1.07863 0.597763 -8.77357e-20)
(1.07608 0.55142 -1.15052e-19)
(1.06764 0.502855 8.73928e-21)
(1.06063 0.457446 -1.36068e-19)
(1.05542 0.417363 -6.48808e-22)
(1.05189 0.383298 3.92354e-20)
(0.313763 0.206167 -1.72435e-19)
(0.71246 0.480529 5.82493e-19)
(0.932703 0.613758 -3.10405e-19)
(1.02367 0.638598 2.67615e-19)
(1.0474 0.607551 2.22158e-19)
(1.04639 0.557838 -2.72471e-20)
(1.04058 0.507167 -8.96647e-20)
(1.03615 0.460352 1.41491e-20)
(1.03307 0.419196 1.95554e-21)
(1.03195 0.384015 -3.09812e-21)
(0.311277 0.221096 1.01441e-19)
(0.69725 0.503501 -1.64419e-19)
(0.906274 0.632537 3.43786e-19)
(0.991291 0.650947 -1.04964e-19)
(1.01447 0.614817 -1.06233e-19)
(1.01555 0.56221 1.8037e-19)
(1.0127 0.509772 -2.23283e-20)
(1.01101 0.461796 1.35382e-20)
(1.01019 0.419669 -1.15336e-20)
(1.01165 0.383483 9.49398e-21)
(0.306544 0.234889 -1.41615e-19)
(0.678289 0.523746 -5.02777e-20)
(0.876173 0.647778 -6.92446e-20)
(0.95672 0.660206 -1.63522e-20)
(0.980067 0.619558 -1.69975e-19)
(0.983746 0.564444 -7.53472e-20)
(0.984136 0.510569 1.08843e-20)
(0.985334 0.461699 -3.26299e-20)
(0.986926 0.418714 1.1683e-19)
(0.991285 0.381662 6.41777e-20)
(0.299634 0.247239 1.65302e-19)
(0.655771 0.5409 -2.28813e-19)
(0.843246 0.659616 -1.29348e-20)
(0.920218 0.666167 -1.50331e-19)
(0.944443 0.621632 9.75937e-20)
(0.951158 0.564444 1.49852e-20)
(0.955012 0.50946 -7.47821e-21)
(0.959211 0.459955 -1.56223e-20)
(0.963543 0.416252 -2.57635e-20)
(0.971549 0.378589 -1.32162e-19)
(0.29063 0.257923 -8.97326e-21)
(0.630017 0.554529 6.16589e-20)
(0.807927 0.667818 -8.98157e-20)
(0.882106 0.668816 6.09009e-20)
(0.907857 0.620954 1.09142e-20)
(0.917971 0.562132 3.1385e-20)
(0.925434 0.50635 1.26081e-19)
(0.932747 0.456402 2.52279e-20)
(0.940433 0.412037 -7.35941e-20)
(0.953134 0.374242 -1.01711e-20)
(0.279754 0.266804 3.48848e-20)
(0.601564 0.564493 2.99135e-20)
(0.770557 0.672194 3.50288e-20)
(0.842727 0.668083 -7.21036e-21)
(0.87057 0.617456 4.19249e-20)
(0.884363 0.557453 8.59551e-21)
(0.895514 0.501191 -2.32766e-19)
(0.906098 0.450917 2.08552e-20)
(0.917849 0.405606 9.66474e-21)
(0.93517 0.367705 3.60548e-20)
(0.267211 0.273772 1.06947e-20)
(0.570843 0.570665 -4.44744e-20)
(0.731546 0.672614 -2.2375e-20)
(0.802432 0.663914 1.95755e-20)
(0.832848 0.611095 1.60486e-20)
(0.850526 0.550378 -1.81664e-19)
(0.86543 0.493993 1.82726e-19)
(0.879496 0.443653 -1.68491e-19)
(0.895647 0.397193 1.83707e-19)
(0.914742 0.355097 -1.06644e-19)
(0.253188 0.278672 2.65082e-20)
(0.538291 0.572937 2.22063e-20)
(0.691317 0.669012 8.22444e-20)
(0.761569 0.656271 9.82761e-20)
(0.794955 0.601843 3.89304e-20)
(0.816677 0.540879 -5.33496e-21)
(0.835437 0.484734 -1.23689e-19)
(0.853165 0.434753 2.36175e-20)
(0.872783 0.388911 -1.88562e-19)
(0.891204 0.348442 2.40401e-19)
(0.237915 0.281388 1.67705e-20)
(0.504339 0.571232 -2.68433e-20)
(0.650294 0.661364 -1.77302e-19)
(0.720485 0.645143 -1.06495e-19)
(0.757157 0.58969 7.70016e-21)
(0.783038 0.528933 3.99128e-19)
(0.805746 0.47335 3.24085e-19)
(0.827189 0.423902 2.22736e-19)
(0.849905 0.378478 4.60991e-19)
(0.869205 0.338248 2.39284e-19)
(0.221638 0.281832 -5.35294e-22)
(0.469415 0.565507 1.50175e-19)
(0.608895 0.649676 5.72775e-20)
(0.67952 0.630546 -6.73879e-20)
(0.719719 0.574647 8.09705e-20)
(0.749826 0.51455 -5.87497e-19)
(0.7765 0.459887 -3.15292e-19)
(0.801556 0.411329 -1.58495e-19)
(0.827093 0.366887 -2.78423e-19)
(0.847963 0.327799 -9.15042e-20)
(0.204609 0.279949 -2.96148e-20)
(0.433944 0.555758 -3.2833e-19)
(0.567528 0.633988 3.46553e-20)
(0.639007 0.61252 1.55368e-19)
(0.682904 0.556744 -5.20026e-20)
(0.717259 0.497748 8.6733e-20)
(0.747874 0.444344 2.8195e-19)
(0.776441 0.396955 -1.2229e-19)
(0.804711 0.353737 -3.58623e-19)
(0.827573 0.31596 -1.54379e-20)
(0.187087 0.275711 7.7086e-20)
(0.398346 0.542018 8.73214e-20)
(0.526593 0.614368 1.77263e-19)
(0.59927 0.59113 -8.71899e-20)
(0.646969 0.536031 -3.67657e-19)
(0.685544 0.478566 -4.03456e-19)
(0.720031 0.426763 -1.49941e-19)
(0.752002 0.380854 4.39296e-19)
(0.782955 0.339162 3.54205e-19)
(0.808028 0.302872 3.95088e-19)
(0.169328 0.269119 -3.02144e-19)
(0.36303 0.524358 3.62392e-19)
(0.486474 0.590914 -2.69051e-19)
(0.560623 0.566464 -2.39891e-19)
(0.612164 0.512579 5.38614e-19)
(0.654886 0.45706 4.83965e-19)
(0.693142 0.407189 5.74447e-19)
(0.7284 0.363051 -1.96604e-19)
(0.761974 0.323135 -1.98253e-19)
(0.789357 0.288469 -5.73277e-19)
(0.151587 0.2602 2.25154e-19)
(0.328394 0.502882 -8.00392e-20)
(0.447541 0.563752 3.31695e-19)
(0.523367 0.538635 -3.04993e-19)
(0.57873 0.486477 -4.19938e-20)
(0.625482 0.433304 -8.41611e-19)
(0.667375 0.385687 -3.78727e-19)
(0.705788 0.343601 2.08774e-19)
(0.7419 0.305691 8.0159e-20)
(0.771621 0.272785 -6.31836e-21)
(0.134114 0.249008 1.17765e-19)
(0.29482 0.477728 -3.19788e-19)
(0.410147 0.533037 -4.31904e-19)
(0.487789 0.507777 2.65706e-20)
(0.5469 0.457837 4.17268e-19)
(0.597526 0.40739 -3.43805e-20)
(0.642891 0.362333 -1.4046e-19)
(0.684309 0.322563 -2.38611e-19)
(0.722848 0.28687 -4.46103e-19)
(0.754885 0.255861 1.22632e-20)
(0.117148 0.235625 4.72869e-20)
(0.26267 0.449067 -4.86737e-20)
(0.374627 0.498948 7.10569e-19)
(0.454162 0.474046 2.78851e-19)
(0.516892 0.426786 -9.27635e-20)
(0.5712 0.379424 6.23422e-19)
(0.619849 0.337218 -3.16296e-19)
(0.664097 0.300014 3.79831e-19)
(0.704931 0.266731 1.45333e-19)
(0.739223 0.237764 -2.40632e-19)
(0.100921 0.220152 1.61166e-19)
(0.232287 0.417098 2.29347e-19)
(0.341291 0.46169 -8.25134e-19)
(0.42274 0.437618 -1.21745e-19)
(0.488914 0.39347 -5.34455e-19)
(0.546678 0.34953 7.0357e-20)
(0.598396 0.310448 8.51226e-20)
(0.645279 0.276041 1.30558e-19)
(0.688253 0.245346 4.5813e-19)
(0.724707 0.218567 9.38364e-20)
(0.0856494 0.202717 -2.20631e-19)
(0.203988 0.382048 3.08518e-19)
(0.310431 0.421491 1.71708e-20)
(0.393761 0.398689 7.70679e-20)
(0.463162 0.358053 5.32957e-19)
(0.524125 0.317844 1.01938e-20)
(0.578671 0.28214 1.28722e-19)
(0.627974 0.250743 -6.24896e-20)
(0.672915 0.222801 -2.88028e-19)
(0.711406 0.198355 -8.44158e-20)
(0.0715338 0.183465 4.48197e-19)
(0.178067 0.344169 -3.40448e-19)
(0.282313 0.378599 4.2531e-19)
(0.367443 0.357471 -2.64662e-20)
(0.439815 0.320711 -9.81271e-21)
(0.503692 0.284519 -5.02839e-19)
(0.560805 0.252425 9.57433e-20)
(0.612295 0.224231 2.8532e-20)
(0.659012 0.199191 -1.1352e-19)
(0.699386 0.17722 4.90143e-19)
(0.0587589 0.162562 -4.98437e-19)
(0.154789 0.303735 2.70533e-19)
(0.257176 0.333283 -2.66281e-19)
(0.343984 0.314193 -1.56665e-19)
(0.419035 0.281636 -4.49224e-20)
(0.485518 0.249718 1.15334e-19)
(0.544918 0.221444 1.62506e-19)
(0.598348 0.196628 1.62465e-19)
(0.646636 0.174624 -2.77431e-19)
(0.688709 0.155261 -1.85256e-19)
(0.0474894 0.140191 1.35188e-19)
(0.134388 0.261041 -6.49392e-20)
(0.235234 0.285826 -4.29604e-20)
(0.323557 0.269098 4.92703e-19)
(0.400967 0.241033 -8.91173e-20)
(0.469729 0.213614 -9.74187e-20)
(0.531122 0.189348 1.81037e-19)
(0.586229 0.168063 -8.67596e-20)
(0.635871 0.149215 6.29952e-20)
(0.679434 0.132582 1.24301e-19)
(0.0378699 0.11655 1.2097e-19)
(0.117071 0.216402 -3.9006e-20)
(0.21667 0.236529 8.75963e-20)
(0.306315 0.22244 -2.71531e-19)
(0.38574 0.199114 6.11014e-20)
(0.456436 0.176391 3.90765e-19)
(0.519514 0.156295 -2.32936e-19)
(0.576031 0.138676 -3.8235e-19)
(0.626801 0.123087 -1.15119e-19)
(0.671619 0.109294 4.68606e-21)
(0.0300228 0.0918469 3.90325e-20)
(0.103008 0.170145 -1.20193e-19)
(0.20164 0.185705 2.37808e-19)
(0.292385 0.174485 -8.49647e-20)
(0.373457 0.156104 1.38274e-19)
(0.44573 0.138239 -3.24136e-19)
(0.51018 0.122449 1.6039e-19)
(0.567838 0.10861 1.35398e-19)
(0.619509 0.0963725 2.06515e-19)
(0.665329 0.0855155 -1.798e-19)
(0.0240477 0.0663049 -1.37751e-19)
(0.092341 0.122612 6.50664e-20)
(0.190268 0.133677 -1.07642e-19)
(0.281868 0.125508 -1.43647e-19)
(0.364204 0.112232 -3.04737e-19)
(0.437686 0.0993528 2.17156e-19)
(0.50319 0.0879769 -5.30527e-20)
(0.561724 0.0780131 1.60575e-19)
(0.614079 0.0692075 -1.40585e-19)
(0.660646 0.0613796 1.18244e-19)
(0.0200202 0.0401537 4.59537e-20)
(0.0851732 0.0741557 -1.4855e-20)
(0.182648 0.0807791 -1.70282e-20)
(0.274839 0.0757894 1.21016e-19)
(0.35804 0.0677324 6.20804e-20)
(0.432353 0.0599296 -6.148e-20)
(0.49859 0.0530455 -8.71326e-21)
(0.557743 0.0470245 -1.68168e-19)
(0.610591 0.0417121 1.21461e-19)
(0.657682 0.0369793 3.64499e-20)
(0.0179913 0.0136301 -1.07605e-20)
(0.0815753 0.0251362 -2.37435e-20)
(0.178838 0.02735 -1.33083e-20)
(0.271344 0.0256182 8.69385e-21)
(0.355 0.0228473 4.82832e-20)
(0.429754 0.0201722 8.68929e-21)
(0.496393 0.0178217 2.98096e-20)
(0.555906 0.0157774 5.33105e-20)
(0.609074 0.0139832 -4.99261e-21)
(0.656519 0.0123708 -5.21605e-20)
(0.0179868 -0.0130247 -2.00544e-20)
(0.081582 -0.0240808 -2.85423e-20)
(0.17887 -0.0262655 4.74317e-21)
(0.271404 -0.0247137 -6.2229e-21)
(0.355094 -0.0221775 5.67766e-20)
(0.429888 -0.0197109 -1.85646e-21)
(0.496576 -0.0175193 3.14235e-20)
(0.556157 -0.015583 5.01719e-20)
(0.609427 -0.0138492 7.54757e-21)
(0.657052 -0.012255 -6.04109e-20)
(0.0200073 -0.0395675 7.89085e-20)
(0.085193 -0.0731274 1.57971e-20)
(0.18274 -0.0797207 -4.51874e-20)
(0.275014 -0.0749109 1.61466e-19)
(0.358311 -0.0670914 1.82842e-20)
(0.432733 -0.0595033 -2.70026e-20)
(0.499099 -0.0527887 -9.75533e-21)
(0.558407 -0.0468948 -1.53959e-19)
(0.611447 -0.0416777 1.02123e-19)
(0.658776 -0.0370255 -1.49808e-20)
(0.0240278 -0.0657556 -1.49817e-19)
(0.0923728 -0.121636 1.9066e-20)
(0.190415 -0.132669 -7.50707e-20)
(0.282145 -0.124678 -1.6548e-19)
(0.364626 -0.111643 -3.18598e-19)
(0.438265 -0.0989851 2.18959e-19)
(0.503939 -0.0877881 -9.46191e-22)
(0.56265 -0.0779636 1.47098e-19)
(0.61518 -0.0692673 -1.75581e-19)
(0.661903 -0.061524 1.53457e-19)
(0.0299984 -0.0913496 -1.47276e-20)
(0.103051 -0.169243 1.02801e-20)
(0.201832 -0.184767 -8.16001e-20)
(0.292743 -0.173722 1.16994e-19)
(0.373994 -0.155582 8.62173e-20)
(0.446449 -0.137941 -3.7738e-19)
(0.511074 -0.12233 1.10568e-19)
(0.568884 -0.108628 2.91143e-19)
(0.620665 -0.0964886 8.92923e-20)
(0.666533 -0.0856932 -1.1289e-19)
(0.037844 -0.116116 -2.56676e-20)
(0.117123 -0.215592 -1.0536e-19)
(0.216897 -0.235677 2.22546e-19)
(0.306733 -0.221755 -2.52492e-19)
(0.386354 -0.198666 -1.57363e-19)
(0.457236 -0.176163 5.70223e-19)
(0.520469 -0.156237 -4.52742e-19)
(0.577092 -0.138738 -2.56454e-19)
(0.627898 -0.123225 -8.3284e-20)
(0.672678 -0.109464 2.3879e-20)
(0.0474657 -0.139829 1.85322e-19)
(0.13445 -0.260335 8.6547e-20)
(0.235485 -0.285071 -7.2444e-20)
(0.324013 -0.268498 5.44965e-19)
(0.401625 -0.24066 -2.48365e-19)
(0.470561 -0.213449 5.42659e-20)
(0.532077 -0.189336 3.42622e-21)
(0.587236 -0.168149 -4.24462e-20)
(0.636853 -0.149351 9.9997e-20)
(0.680324 -0.132727 5.31682e-20)
(0.058741 -0.162275 -3.84548e-19)
(0.15486 -0.30314 4.3413e-20)
(0.257443 -0.332632 -2.49831e-19)
(0.344459 -0.313682 -9.2559e-20)
(0.419706 -0.281336 8.00522e-20)
(0.486343 -0.249607 4.19285e-20)
(0.54583 -0.221465 4.00725e-20)
(0.599264 -0.196721 9.72466e-20)
(0.647482 -0.174744 -4.38472e-20)
(0.689437 -0.155372 -3.31136e-19)
(0.0715253 -0.183252 3.94592e-19)
(0.178148 -0.343687 -2.35179e-19)
(0.282588 -0.378054 4.38243e-19)
(0.367922 -0.357047 -5.72129e-20)
(0.440477 -0.320477 -1.05036e-19)
(0.504483 -0.284453 -4.181e-19)
(0.561647 -0.252466 1.80306e-19)
(0.613105 -0.224321 -2.82825e-19)
(0.659724 -0.199288 1.86138e-19)
(0.699973 -0.177297 2.27002e-19)
(0.0856533 -0.202576 -2.95322e-19)
(0.204081 -0.381679 1.47149e-19)
(0.310709 -0.421051 3.13743e-19)
(0.394232 -0.398348 -3.73976e-20)
(0.463799 -0.35788 5.5697e-19)
(0.524865 -0.317815 3.97648e-20)
(0.579429 -0.282193 -3.16468e-20)
(0.628673 -0.250823 1.4695e-19)
(0.673503 -0.222874 -2.99643e-19)
(0.711876 -0.198401 -1.19044e-19)
(0.10094 -0.220078 2.16862e-19)
(0.232392 -0.416837 3.04115e-19)
(0.341569 -0.461352 -8.02683e-19)
(0.423195 -0.437356 -2.92915e-19)
(0.489515 -0.393352 -1.00935e-19)
(0.547357 -0.349529 -1.86859e-19)
(0.599067 -0.310506 1.9289e-19)
(0.645872 -0.276109 -2.55558e-20)
(0.688732 -0.245397 4.77201e-19)
(0.725083 -0.218589 -4.04142e-20)
(0.117184 -0.235611 -5.63183e-20)
(0.26279 -0.448907 -1.63366e-19)
(0.374902 -0.498705 9.57343e-19)
(0.454595 -0.473857 1.34187e-19)
(0.51745 -0.426715 -1.22323e-19)
(0.571813 -0.379447 5.89486e-19)
(0.620434 -0.337278 -1.05301e-21)
(0.664593 -0.30007 1.18466e-20)
(0.705318 -0.266764 1.54231e-19)
(0.739525 -0.237767 -2.29707e-20)
(0.134167 -0.249046 3.47127e-20)
(0.294955 -0.477659 -2.22431e-19)
(0.410421 -0.532882 -5.8951e-19)
(0.4882 -0.507655 2.62267e-19)
(0.547413 -0.457808 -1.55686e-20)
(0.598073 -0.407431 1.75538e-19)
(0.643396 -0.362393 3.81878e-20)
(0.68472 -0.322609 -4.60752e-19)
(0.723158 -0.28689 -3.65691e-19)
(0.75513 -0.255852 4.32765e-20)
(0.151659 -0.260281 -6.88998e-20)
(0.328547 -0.502893 -5.86293e-20)
(0.447813 -0.563678 4.32269e-19)
(0.523754 -0.538574 -1.96326e-19)
(0.5792 -0.486484 -1.93357e-19)
(0.625967 -0.43336 -6.80769e-19)
(0.667805 -0.385747 -3.52075e-19)
(0.706125 -0.343638 1.80976e-19)
(0.742147 -0.305703 4.50279e-20)
(0.771823 -0.27277 1.99455e-19)
(0.169418 -0.269234 -2.49757e-19)
(0.363202 -0.524439 3.54146e-19)
(0.486745 -0.590911 -5.86621e-19)
(0.560989 -0.566457 2.12665e-19)
(0.612592 -0.512618 2.04225e-19)
(0.655313 -0.457128 6.78224e-19)
(0.693507 -0.407249 4.3571e-19)
(0.728673 -0.363083 -2.22241e-19)
(0.762169 -0.323144 -3.2676e-19)
(0.78953 -0.288457 -3.41115e-19)
(0.187194 -0.275853 1.66327e-19)
(0.398537 -0.542158 2.25561e-20)
(0.526866 -0.614428 4.47181e-21)
(0.599616 -0.591171 -1.7975e-20)
(0.647358 -0.536098 -5.05724e-19)
(0.685919 -0.478645 -4.30152e-20)
(0.720339 -0.426823 -4.0267e-19)
(0.752222 -0.380884 3.47832e-19)
(0.783107 -0.339172 6.43697e-19)
(0.80818 -0.302868 3.22432e-19)
(0.204732 -0.28011 -1.85073e-19)
(0.434154 -0.555945 -3.01335e-19)
(0.567804 -0.634102 -3.83249e-22)
(0.639336 -0.612603 2.26561e-19)
(0.683259 -0.556834 -1.25299e-19)
(0.717588 -0.497836 2.52534e-19)
(0.748132 -0.444405 4.6158e-20)
(0.776615 -0.396985 -1.50337e-19)
(0.804827 -0.353752 -1.85779e-19)
(0.827713 -0.315973 -1.37923e-19)
(0.221773 -0.282004 -4.39063e-20)
(0.469644 -0.565732 1.2645e-19)
(0.609176 -0.649835 1.19946e-19)
(0.679836 -0.630664 -8.40821e-22)
(0.720044 -0.574758 -7.5235e-20)
(0.750115 -0.514647 -4.42339e-19)
(0.776716 -0.45995 -3.77434e-19)
(0.801692 -0.411359 -4.83737e-20)
(0.827177 -0.366909 -4.34773e-19)
(0.848092 -0.327838 -1.98326e-19)
(0.238062 -0.281566 3.32834e-20)
(0.504586 -0.571485 -1.22501e-19)
(0.650582 -0.66156 -4.61763e-20)
(0.720791 -0.645291 -2.31465e-19)
(0.757457 -0.589817 1.505e-19)
(0.783293 -0.529036 3.78977e-19)
(0.805927 -0.473415 2.01747e-19)
(0.827295 -0.423936 2.27955e-19)
(0.849956 -0.378514 5.1419e-19)
(0.869312 -0.338334 7.79907e-20)
(0.253345 -0.278852 2.79041e-20)
(0.538555 -0.573209 1.94475e-20)
(0.691613 -0.669237 4.97941e-20)
(0.761868 -0.656443 7.42061e-20)
(0.795235 -0.601984 7.25321e-20)
(0.816904 -0.540988 -2.02195e-20)
(0.83559 -0.4848 -5.92645e-20)
(0.853251 -0.434784 -1.02649e-19)
(0.872818 -0.388943 -1.50536e-19)
(0.891301 -0.348545 2.47492e-19)
(0.267374 -0.273948 4.52932e-21)
(0.571122 -0.570949 -5.81442e-20)
(0.73185 -0.67286 -1.23302e-20)
(0.802727 -0.664105 -3.8592e-20)
(0.833112 -0.611247 8.09327e-20)
(0.85073 -0.55049 -1.70159e-19)
(0.865559 -0.494061 4.99431e-20)
(0.879566 -0.443688 2.91521e-20)
(0.895658 -0.397259 7.93745e-22)
(0.914688 -0.355405 -1.03373e-19)
(0.279922 -0.266974 -6.95865e-21)
(0.601857 -0.564782 7.05634e-20)
(0.770871 -0.672456 2.86005e-21)
(0.843021 -0.66829 1.3786e-20)
(0.870824 -0.617616 6.84245e-21)
(0.88455 -0.557568 5.99635e-20)
(0.895625 -0.501258 -2.01201e-19)
(0.906157 -0.450944 6.10144e-20)
(0.917875 -0.405636 -1.3898e-19)
(0.935105 -0.367825 4.69842e-20)
(0.290801 -0.258084 -1.02232e-19)
(0.630321 -0.554817 1.39336e-19)
(0.80825 -0.66809 -5.91064e-20)
(0.882402 -0.669033 4.0619e-20)
(0.908103 -0.62112 -1.81219e-21)
(0.918147 -0.562248 5.94024e-20)
(0.925533 -0.506414 1.20343e-19)
(0.932805 -0.456419 -3.60761e-20)
(0.940491 -0.412043 -5.62824e-20)
(0.953148 -0.374309 -4.71986e-21)
(0.299806 -0.247389 2.42064e-19)
(0.656084 -0.541183 -2.30233e-19)
(0.843579 -0.659893 -5.49515e-20)
(0.920517 -0.666392 -1.01328e-19)
(0.944686 -0.621802 1.022e-19)
(0.951328 -0.564561 9.4643e-21)
(0.955108 -0.509523 -2.71359e-20)
(0.959274 -0.459972 -2.14762e-20)
(0.963629 -0.416259 6.04293e-20)
(0.971632 -0.378653 -2.50644e-19)
(0.306713 -0.235028 -4.01634e-20)
(0.678608 -0.524019 -2.01568e-20)
(0.876515 -0.648056 -1.54602e-19)
(0.957024 -0.660435 -4.30601e-20)
(0.98031 -0.619731 -1.04275e-19)
(0.983914 -0.564561 -8.58173e-20)
(0.984233 -0.510633 1.30908e-21)
(0.985405 -0.461721 -1.44633e-20)
(0.987029 -0.418728 1.38809e-19)
(0.991394 -0.381723 4.25449e-20)
(0.311444 -0.221222 3.86658e-19)
(0.697574 -0.503762 -2.21297e-19)
(0.906625 -0.632813 1.4891e-19)
(0.991601 -0.651178 2.95039e-20)
(1.01472 -0.614992 -7.35184e-20)
(1.01572 -0.562328 1.3766e-19)
(1.0128 -0.509839 -3.34304e-21)
(1.01109 -0.461824 1.36818e-20)
(1.0103 -0.41969 -2.84708e-20)
(1.01177 -0.383539 1.59639e-20)
(0.313926 -0.20628 -1.974e-19)
(0.712786 -0.480776 4.88281e-19)
(0.933062 -0.614028 -1.30314e-19)
(1.02399 -0.638828 1.59474e-20)
(1.04765 -0.607726 3.21724e-19)
(1.04657 -0.557957 -6.20838e-20)
(1.04069 -0.507237 -5.61937e-20)
(1.03623 -0.460386 4.40431e-20)
(1.03318 -0.419223 -9.03704e-21)
(1.03205 -0.384065 -7.56055e-22)
(0.314077 -0.19046 1.21541e-19)
(0.724052 -0.45519 7.31018e-20)
(0.955502 -0.592057 2.77711e-20)
(1.05372 -0.623702 -8.55397e-20)
(1.07888 -0.597938 -5.89784e-20)
(1.07625 -0.551541 -1.97411e-19)
(1.06775 -0.502928 2.95014e-21)
(1.06072 -0.457486 -9.11754e-20)
(1.05554 -0.417395 5.2287e-21)
(1.05199 -0.383346 2.32342e-20)
(0.311838 -0.174017 -8.28295e-20)
(0.731048 -0.427366 -7.36415e-19)
(0.97393 -0.567307 4.38355e-19)
(1.0802 -0.605781 1.64704e-19)
(1.10807 -0.585779 -2.09168e-19)
(1.10459 -0.543207 -4.69936e-20)
(1.09384 -0.497013 1.42766e-19)
(1.08445 -0.453211 1.71003e-19)
(1.07727 -0.414299 1.0417e-21)
(1.07148 -0.381472 8.66847e-21)
(0.307201 -0.157209 -1.4387e-19)
(0.733479 -0.397689 2.61112e-19)
(0.987972 -0.539976 -6.24776e-19)
(1.10318 -0.585265 -1.76887e-19)
(1.13492 -0.571443 1.69323e-19)
(1.13137 -0.533083 3.99729e-20)
(1.11883 -0.489611 -1.93576e-19)
(1.1073 -0.447663 -1.06139e-19)
(1.0983 -0.410035 -1.14009e-19)
(1.09046 -0.378537 -3.6517e-20)
(0.300215 -0.140287 5.61299e-20)
(0.731138 -0.366553 5.21471e-19)
(0.997215 -0.510331 2.27266e-19)
(1.12242 -0.562393 2.24454e-19)
(1.1592 -0.55509 -6.26735e-20)
(1.15645 -0.521326 2.50461e-19)
(1.14255 -0.480824 -3.00411e-20)
(1.1292 -0.440948 9.16313e-20)
(1.11854 -0.404703 1.37852e-19)
(1.10884 -0.374617 -5.45346e-20)
(0.290972 -0.1235 -1.72176e-19)
(0.72391 -0.334373 -3.24745e-19)
(1.00132 -0.478701 -2.08412e-19)
(1.13756 -0.537394 1.64199e-19)
(1.18063 -0.536897 2.57909e-20)
(1.17968 -0.508046 -2.41842e-19)
(1.16497 -0.470794 3.26452e-20)
(1.14998 -0.433176 5.59137e-20)
(1.13793 -0.398387 3.70248e-20)
(1.12657 -0.369793 2.16477e-20)
(0.279612 -0.107095 1.14796e-19)
(0.711753 -0.301591 2.99427e-19)
(1.00001 -0.445449 2.71563e-19)
(1.14825 -0.510499 -2.9668e-19)
(1.19891 -0.517016 -1.87501e-19)
(1.2008 -0.493406 8.42846e-20)
(1.18604 -0.459627 1.26762e-19)
(1.16965 -0.424433 -2.17799e-20)
(1.15633 -0.391219 -9.71614e-20)
(1.14364 -0.364145 -2.70613e-20)
(0.266313 -0.091305 7.48307e-20)
(0.694703 -0.268658 -1.34884e-20)
(0.993055 -0.410951 -1.26284e-19)
(1.15414 -0.481947 -1.69634e-20)
(1.21376 -0.4956 -2.16999e-20)