/*--------------------------------*- C++ -*----------------------------------*\
  =========                 |
  \\      /  F ield         | OpenFOAM: The Open Source CFD Toolbox
   \\    /   O peration     | Website:  https://openfoam.org
    \\  /    A nd           | Version:  7
     \\/     M anipulation  |
\*---------------------------------------------------------------------------*/
FoamFile
{
    version     2.0;
    format      ascii;
    class       surfaceScalarField;
    location    "30";
    object      phi;
}
// * * * * * * * * * * * * * * * * * * * * * * * * * * * * * * * * * * * * * //

dimensions      [0 3 -1 0 0 0 0];

internalField   nonuniform List<scalar> 
12526
(
7.80022e-05
7.95332e-05
8.06961e-05
-7.57434e-07
8.14535e-05
0.000186492
-2.61987e-07
8.17155e-05
0.000179802
3.81374e-07
8.13341e-05
1.02269e-05
0.000169957
0.000188466
1.17891e-06
8.01552e-05
1.48353e-05
0.0001563
5.24598e-05
0.000150842
4.8005e-05
2.21689e-06
7.79383e-05
2.04349e-05
0.000138082
6.79753e-05
0.000103301
-4.5423e-05
3.54095e-06
7.43973e-05
2.71906e-05
0.000114433
8.62258e-05
4.42662e-05
0.000199525
-0.000158722
-0.000523207
5.19428e-06
6.92031e-05
3.52359e-05
8.43912e-05
0.000107424
-2.79221e-05
0.000242823
-0.000294121
0.000465181
-0.000745566
-0.00140886
7.21106e-06
6.1992e-05
4.466e-05
4.69423e-05
0.000131651
-0.000114914
0.000291076
-0.000453546
0.000546479
-0.00100097
0.00091247
-0.00177486
-0.00275065
9.61429e-06
5.23777e-05
5.54994e-05
1.0572e-06
0.000158831
-0.000218245
0.000343664
-0.000638379
0.000631386
-0.00128869
0.00102734
-0.00217081
0.00150679
-0.00323009
-0.00436568
1.2415e-05
3.99627e-05
6.77323e-05
-5.42601e-05
0.000188708
-0.000339221
0.000399537
-0.000849208
0.000716951
-0.0016061
0.00113396
-0.00258782
0.00161094
-0.00370707
0.00208929
-0.00484403
-0.00588972
1.56122e-05
2.43505e-05
8.12737e-05
-0.000119922
0.000220842
-0.000478789
0.000457218
-0.00108558
0.000799672
-0.00194856
0.00122702
-0.00301517
0.00168811
-0.00416816
0.00212584
-0.00528176
0.00250593
-0.00626981
-0.00713281
1.91919e-05
5.15859e-06
9.59728e-05
-0.000196702
0.000254597
-0.000637413
0.000514851
-0.00134584
0.00087585
-0.00230956
0.00130226
-0.00344159
0.00173655
-0.00460245
0.0021285
-0.0056737
0.0024566
-0.00659791
-0.00740075
0.00272454
2.31264e-05
-1.79678e-05
0.000111609
-0.000285186
0.000289148
-0.000814951
0.00057031
-0.001627
0.000942024
-0.00268127
0.0013569
-0.00385646
0.00175666
-0.00500221
0.00210132
-0.00601836
0.00238136
-0.00687795
-0.00762685
0.00260746
2.73734e-05
-4.53412e-05
0.000127894
-0.000385706
0.000323506
-0.00101056
0.00062137
-0.00192486
0.00099537
-0.00305527
0.00138976
-0.00425085
0.00175044
-0.00536289
0.00204894
-0.00631686
0.0022859
-0.00711491
-0.0078176
0.00247665
3.1874e-05
-7.72151e-05
0.000144467
-0.000498299
0.000356557
-0.00122265
0.000665916
-0.00223422
0.00103398
-0.00342333
0.00140112
-0.00461799
0.00172085
-0.00568262
0.00197601
-0.00657203
0.00217513
-0.00731402
-0.00797847
0.00233599
3.65525e-05
-0.000113768
0.000160911
-0.000622657
0.000387135
-0.00144888
0.000702157
-0.00254924
0.00105692
-0.00377809
0.00139229
-0.00495336
0.00167127
-0.0059616
0.00188683
-0.00678759
0.00205302
-0.00748022
-0.00811384
0.0021884
4.13172e-05
-0.000155085
0.000176765
-0.000758105
0.000414102
-0.00168622
0.000728776
-0.00286392
0.00106419
-0.00411351
0.00136529
-0.00525445
0.00160514
-0.00620145
0.00178512
-0.00696757
0.00192277
-0.00761786
-0.00822712
0.00203605
4.60622e-05
-0.000201147
0.000191541
-0.000903584
0.000436448
-0.00193112
0.000745013
-0.00317248
0.00105653
-0.00442502
0.0013225
-0.00552043
0.00152569
-0.00640464
0.00167404
-0.00711593
0.00178681
-0.00773063
-0.00832084
0.00188053
5.06706e-05
-0.000251818
0.000204758
-0.00105767
0.000453358
-0.00217972
0.000750652
-0.00346978
0.00103515
-0.00470952
0.00126639
-0.00575167
0.00143581
-0.00657406
0.00155616
-0.00723627
0.00164701
-0.00782148
-0.00839683
0.001723
5.50198e-05
-0.000306837
0.000215968
-0.00121862
0.000464277
-0.00242803
0.000745953
-0.00375145
0.00100161
-0.00496518
0.00119934
-0.0059494
0.001338
-0.00671271
0.0014335
-0.00733178
0.00150478
-0.00789276
-0.00845639
0.00156434
5.89867e-05
-0.000365824
0.000224782
-0.00138442
0.000468918
-0.00267217
0.000731543
-0.00401408
0.000957581
-0.00519121
0.00112356
-0.00611538
0.00123435
-0.00682351
0.00130769
-0.00740512
0.00136116
-0.00794623
-0.00850044
0.0014052
6.24532e-05
-0.000428277
0.000230897
-0.00155286
0.000467262
-0.00290853
0.0007083
-0.00425512
0.000904756
-0.00538767
0.00104101
-0.00625163
0.0011266
-0.00690909
0.00117996
-0.00745848
0.00121695
-0.00798322
-0.00852959
0.0012461
6.53124e-05
-0.00049359
0.000234107
-0.00172165
0.000459516
-0.00313394
0.000677253
-0.00447285
0.000844743
-0.00555516
0.000953388
-0.00636027
0.00101613
-0.00697184
0.00105127
-0.00749362
0.00107274
-0.00800469
-0.00854427
0.00108743
6.74723e-05
-0.000561062
0.000234313
-0.00188849
0.000446066
-0.00334569
0.000639488
-0.00466628
0.000779029
-0.0056947
0.000862145
-0.00644339
0.000904083
-0.00701378
0.000922368
-0.0075119
0.000929
-0.00801132
-0.00854474
0.00092947
6.88603e-05
-0.000629922
0.000231512
-0.00205115
0.000427426
-0.00354161
0.000596094
-0.00483494
0.000708942
-0.00580755
0.000768485
-0.00650293
0.000791334
-0.00703663
0.000793823
-0.00751439
0.000786091
-0.00800359
-0.00853113
0.000772482
6.9425e-05
-0.000699347
0.000225794
-0.00220751
0.000404185
-0.00372
0.000548108
-0.00497887
0.000635647
-0.00589509
0.000673406
-0.00654069
0.000678587
-0.00704181
0.000666076
-0.00750188
0.000644312
-0.00798183
-0.00850346
0.000616639
6.91371e-05
-0.000768485
0.000217322
-0.0023557
0.000376969
-0.00387964
0.000496497
-0.0050984
0.000560151
-0.00595874
0.000577727
-0.00655827
0.000566397
-0.00703048
0.000539468
-0.00747495
0.000503905
-0.00794626
-0.00846165
0.000462092
6.79889e-05
-0.000836473
0.000206317
-0.00249403
0.000346405
-0.00401973
0.000442133
-0.00519412
0.000483314
-0.00599992
0.000482123
-0.00655708
0.000455231
-0.00700359
0.000414297
-0.00743402
0.000365003
-0.00789697
-0.00840567
0.00030903
6.59928e-05
-0.000902466
0.000193032
-0.00262107
0.0003131
-0.0041398
0.000385794
-0.00526682
0.000405856
-0.00601998
0.000387146
-0.00653837
0.000345508
-0.00696195
0.00029096
-0.00737947
0.000227585
-0.00783359
-0.00833551
0.000157425
6.31809e-05
-0.000965647
0.000177751
-0.00273564
0.000277625
-0.00423968
0.000328158
-0.00531735
0.000328376
-0.0060202
0.00029323
-0.00650322
0.000237554
-0.00690627
0.000169919
-0.00731184
9.25381e-05
-0.00775621
-0.00824365
6.71205e-07
5.9604e-05
-0.00102525
0.000160785
-0.00283682
0.00024051
-0.0043194
0.000269814
-0.00534665
0.000251368
-0.00600176
0.000200718
-0.00645257
0.000131545
-0.0068371
5.08108e-05
-0.0072311
-3.82872e-05
-0.00766712
-0.00814385
-0.000138086
5.53256e-05
-0.00108058
0.000142427
-0.00292392
0.000202236
-0.00437921
0.000211265
-0.00535568
0.000175238
-0.00596573
0.000109889
-0.00638722
2.74538e-05
-0.00675467
-6.55846e-05
-0.00713806
-0.000168935
-0.00756377
-0.00803268
-0.000280102
5.04204e-05
-0.001131
0.000122956
-0.00299646
0.000163236
-0.00441949
0.000152937
-0.00534539
0.000100308
-0.0059131
2.08677e-05
-0.00630778
-7.37851e-05
-0.00666001
-0.000179264
-0.00703258
-0.000295547
-0.00744748
-0.00790817
-0.000420062
4.49719e-05
-0.00117597
0.000102647
-0.00305413
0.000123894
-0.00444074
9.51828e-05
-0.00531667
2.688e-05
-0.0058448
-6.57393e-05
-0.00621516
-0.000172654
-0.0065531
-0.000290423
-0.00691482
-0.000419159
-0.00731875
-0.00777031
-0.000557019
3.90693e-05
-0.00121504
8.17749e-05
-0.00309684
8.45319e-05
-0.00444349
3.83796e-05
-0.00527052
-4.48197e-05
-0.0057616
-0.000150199
-0.00610978
-0.000269043
-0.00643425
-0.00039874
-0.00678512
-0.000539788
-0.0071777
-0.00761941
-0.000690686
3.27958e-05
-0.00124783
6.0612e-05
-0.00312465
4.54846e-05
-0.00442837
-1.72359e-05
-0.0052078
-0.000114649
-0.00566418
-0.000232366
-0.00599206
-0.000362792
-0.00630383
-0.000504127
-0.00664378
-0.000657289
-0.00702454
-0.00745599
-0.000820709
2.62465e-05
-0.00127408
3.93429e-05
-0.00313775
7.95739e-06
-0.00439698
-7.17068e-05
-0.00512814
-0.000182575
-0.00555332
-0.000312121
-0.00586252
-0.000453812
-0.00616214
-0.000606524
-0.00649107
-0.000771509
-0.00685955
-0.00728077
-0.000946726
1.96235e-05
-0.0012937
1.81786e-05
-0.0031363
-3.11337e-05
-0.00434767
-0.000124807
-0.00503446
-0.000248419
-0.0054297
-0.000389376
-0.00572156
-0.000542032
-0.00600948
-0.000705861
-0.00632724
-0.000882335
-0.00668308
-0.00709428
-0.00106882
1.28634e-05
-0.00130657
-9.95229e-07
-0.00312244
-6.83899e-05
-0.00428027
-0.000176426
-0.00492643
-0.000312118
-0.00529401
-0.000464067
-0.00556961
-0.000627417
-0.00584613
-0.000802108
-0.00615255
-0.000989811
-0.00649538
-0.00689632
-0.00118777
5.47883e-06
-0.00131205
-2.45928e-05
-0.00309237
-0.000104833
-0.00420003
-0.000226291
-0.00480497
-0.000373575
-0.00514673
-0.000536157
-0.00540703
-0.000710017
-0.00567227
-0.00089542
-0.00596715
-0.00109388
-0.00629691
-0.00668704
-0.00130317
-2.08706e-06
-0.00130996
-4.57494e-05
-0.00304871
-0.000140175
-0.00410561
-0.0002743
-0.00467084
-0.00043267
-0.00498836
-0.000605575
-0.00523412
-0.000789901
-0.00548795
-0.0009862
-0.00577085
-0.00119424
-0.00608887
-0.0064682
-0.00141307
-8.9876e-06
-0.00130097
-6.6082e-05
-0.00299162
-0.000174246
-0.00399744
-0.000320398
-0.00452469
-0.000489314
-0.00481944
-0.000672187
-0.00505125
-0.000866812
-0.00529332
-0.00107428
-0.00556338
-0.0012952
-0.00586795
-0.0062508
-0.0015126
-1.60158e-05
-0.00128496
-8.57382e-05
-0.00292189
-0.000206961
-0.00387622
-0.000364506
-0.00436715
-0.00054344
-0.00464051
-0.00073585
-0.00485884
-0.000940152
-0.00508902
-0.00115659
-0.00534695
-0.00138264
-0.0056419
-0.0059806
-0.00165283
-2.29289e-05
-0.00126203
-0.000104707
-0.00284012
-0.00023826
-0.00374267
-0.000406566
-0.00419884
-0.000595014
-0.00445206
-0.000796494
-0.00465736
-0.00100958
-0.00487593
-0.00123394
-0.00512258
-0.00147149
-0.00540436
-0.00571308
-0.00173901
-2.96608e-05
-0.00123237
-0.000122934
-0.00274684
-0.000268097
-0.00359751
-0.000446537
-0.0040204
-0.000644
-0.0042546
-0.00085412
-0.00444724
-0.00107581
-0.00465425
-0.00130954
-0.00488885
-0.00155864
-0.00515525
-0.00544325
-0.00182847
-3.61717e-05
-0.00119619
-0.000140362
-0.00264265
-0.000296426
-0.00344144
-0.00048438
-0.00383245
-0.000690349
-0.00404863
-0.000908632
-0.00422896
-0.00113848
-0.0044244
-0.00138086
-0.00464648
-0.00163871
-0.0048974
-0.00516801
-0.00191395
-4.24293e-05
-0.00115377
-0.000156941
-0.00252814
-0.00032321
-0.00327517
-0.00052007
-0.00363558
-0.000734045
-0.00383465
-0.00096006
-0.00400294
-0.00119773
-0.00418673
-0.0014483
-0.00439591
-0.00171413
-0.00463157
-0.00488617
-0.00199597
-4.84056e-05
-0.00110536
-0.000172627
-0.00240392
-0.000348416
-0.00309939
-0.000553585
-0.00343042
-0.000775067
-0.00361317
-0.00100837
-0.00376964
-0.00125343
-0.00394167
-0.00151161
-0.00413773
-0.00178489
-0.00435829
-0.00459724
-0.00207382
-5.40758e-05
-0.00105128
-0.000187384
-0.00227061
-0.000372019
-0.00291475
-0.000584908
-0.00321753
-0.000813402
-0.00338468
-0.00105354
-0.0035295
-0.00130555
-0.00368967
-0.00157084
-0.00387243
-0.00185119
-0.00407794
-0.0043012
-0.00214723
-5.9418e-05
-0.000991866
-0.000201182
-0.00212885
-0.000393998
-0.00272193
-0.000614029
-0.0029975
-0.000849039
-0.00314967
-0.00109557
-0.00328297
-0.00135405
-0.00343118
-0.00162598
-0.0036005
-0.00191303
-0.00379089
-0.00399826
-0.00221597
-6.4413e-05
-0.000927453
-0.000213995
-0.00197926
-0.000414336
-0.00252159
-0.000640938
-0.0027709
-0.000881971
-0.00290864
-0.00113441
-0.00303053
-0.00139892
-0.00316668
-0.00167701
-0.00332241
-0.00197036
-0.00349754
-0.00368876
-0.00227986
-6.90446e-05
-0.000858408
-0.000225805
-0.0018225
-0.000433021
-0.00231438
-0.000665631
-0.00253829
-0.000912189
-0.00266208
-0.00117008
-0.00277264
-0.00144012
-0.00289664
-0.0017239
-0.00303863
-0.00202309
-0.00319835
-0.00337313
-0.00233873
-7.32987e-05
-0.000785109
-0.000236593
-0.00165921
-0.000450045
-0.00210092
-0.000688104
-0.00230023
-0.00093969
-0.00241049
-0.00120254
-0.00250979
-0.00147763
-0.00262155
-0.00176661
-0.00274965
-0.00207117
-0.00289379
-0.00305184
-0.00239246
-7.71632e-05
-0.000707946
-0.000246348
-0.00149002
-0.0004654
-0.00188187
-0.000708358
-0.00205727
-0.000964473
-0.00215438
-0.0012318
-0.00224246
-0.00151145
-0.0023419
-0.00180512
-0.00245598
-0.00211454
-0.00258437
-0.00272543
-0.00244095
-8.06283e-05
-0.000627318
-0.00025506
-0.00131559
-0.000479085
-0.00165785
-0.000726394
-0.00180996
-0.000986541
-0.00189423
-0.00125785
-0.00197115
-0.00154155
-0.0020582
-0.00183939
-0.00215814
-0.00215313
-0.00227063
-0.00239445
-0.00248411
-8.36854e-05
-0.000543633
-0.000262718
-0.00113656
-0.000491096
-0.00142947
-0.000742215
-0.00155884
-0.0010059
-0.00163055
-0.0012807
-0.00169635
-0.00156794
-0.00177096
-0.00186941
-0.00185667
-0.00218691
-0.00195313
-0.00205949
-0.00252187
-8.63271e-05
-0.000457305
-0.000269317
-0.000953569
-0.000501432
-0.00119736
-0.000755827
-0.00130445
-0.00102255
-0.00136382
-0.00130036
-0.00141854
-0.00159062
-0.0014807
-0.00189519
-0.0015521
-0.00221587
-0.00163245
-0.00172115
-0.0025542
-8.85473e-05
-0.000368758
-0.000274851
-0.000767266
-0.000510091
-0.000962116
-0.00076723
-0.00104731
-0.00103652
-0.00109453
-0.00131684
-0.00113822
-0.00160963
-0.0011879
-0.00191675
-0.00124498
-0.00224003
-0.00130918
-0.00138009
-0.00258109
-9.034e-05
-0.000278418
-0.000279311
-0.000578295
-0.00051707
-0.000724357
-0.000776427
-0.000787948
-0.00104779
-0.000823172
-0.00133016
-0.000855849
-0.001625
-0.000893063
-0.00193416
-0.000935827
-0.00225945
-0.000983886
-0.00103696
-0.00260259
-9.17001e-05
-0.000186718
-0.000282692
-0.000387303
-0.000522361
-0.000484688
-0.000783412
-0.000526897
-0.00105637
-0.000550214
-0.00134033
-0.000571888
-0.00163677
-0.000596628
-0.0019475
-0.000625097
-0.00227429
-0.000657096
-0.000692389
-0.00261885
-9.26225e-05
-9.40955e-05
-0.000284985
-0.000194941
-0.000525955
-0.000243717
-0.000788172
-0.000264681
-0.00106225
-0.000276137
-0.00134735
-0.000286791
-0.00164495
-0.000299024
-0.00195686
-0.000313183
-0.00228476
-0.000329194
-0.000346851
-0.0026303
-9.31028e-05
-9.92751e-07
-0.000286181
-1.86305e-06
-0.000527839
-2.05844e-06
-0.000790686
-1.83437e-06
-0.00106539
-1.43622e-06
-0.00135115
-1.02941e-06
-0.00164948
-6.875e-07
-0.00196223
-4.39312e-07
-0.00229112
-3.03585e-07
-3.18625e-07
-0.00263765
-9.31371e-05
9.21443e-05
-0.000286272
0.000191272
-0.000527998
0.000239668
-0.000790926
0.000261094
-0.00106573
0.000273372
-0.00135164
0.000284879
-0.00165019
0.000297862
-0.00196327
0.000312634
-0.00229269
0.000329119
0.000347259
-0.00264027
-9.27229e-05
0.000184867
-0.000285251
0.0003838
-0.000526418
0.000480835
-0.000788869
0.000523544
-0.00106324
0.000547746
-0.00134873
0.000570369
-0.00164686
0.000595991
-0.00195949
0.000625261
-0.00228838
0.000658012
0.000694049
-0.00263517
-9.18592e-05
0.000276726
-0.000283115
0.000575056
-0.000523092
0.000720811
-0.0007845
0.000784953
-0.00105789
0.000821141
-0.0013424
0.00085487
-0.00163949
0.000893082
-0.00195098
0.000936759
-0.00227862
0.000985644
0.00103941
-0.00262398
-9.05471e-05
0.000367274
-0.000279862
0.000764371
-0.000518016
0.000958964
-0.000777816
0.00104475
-0.00104969
0.00109301
-0.00133265
0.00113783
-0.00162813
0.00118856
-0.00193792
0.00124655
-0.00226375
0.00131147
0.00138286
-0.00260721
-8.87894e-05
0.000456063
-0.000275497
0.000951079
-0.000511192
0.00119466
-0.000768823
0.00130238
-0.00103864
0.00136283
-0.00131953
0.00141871
-0.00161286
0.00148189
-0.00192041
0.00155411
-0.00224393
0.00163499
0.00172391
-0.00258498
-8.65908e-05
0.000542654
-0.000270024
0.00113451
-0.000502628
0.00142726
-0.000757529
0.00155728
-0.00102477
0.00163008
-0.00130307
0.00169701
-0.00159373
0.00177256
-0.00189854
0.00185891
-0.00221923
0.00195569
0.00206203
-0.00255735
-8.39576e-05
0.000626611
-0.000263452
0.00131401
-0.000492332
0.00165614
-0.000743947
0.0018089
-0.0010081
0.00189423
-0.0012833
0.00197221
-0.0015708
0.00206006
-0.00187235
0.00216046
-0.00218972
0.00227305
0.00239669
-0.00252438
-8.08979e-05
0.000707509
-0.000255791
0.0014889
-0.000480313
0.00188067
-0.000728091
0.00205668
-0.000988647
0.00215478
-0.00126026
0.00224383
-0.00154411
0.00234391
-0.00184191
0.00245826
-0.00215543
0.00258658
0.00272735
-0.00248609
-7.74208e-05
0.00078493
-0.000247055
0.00165853
-0.000466584
0.00210019
-0.000709971
0.00230007
-0.000966432
0.00241125
-0.00123398
0.00251137
-0.00151368
0.00262361
-0.00180724
0.00275181
-0.00211641
0.00289575
0.00305345
-0.00244252
-7.35372e-05
0.000858467
-0.000237257
0.00182225
-0.000451155
0.00231409
-0.000689601
0.00253851
-0.000941471
0.00266311
-0.00120447
0.00277437
-0.00147955
0.00289869
-0.00176837
0.00304064
-0.00207269
0.00320007
0.00337448
-0.00239372
-6.92593e-05
0.000927726
-0.000226412
0.00197941
-0.000434041
0.00252172
-0.000666991
0.00277146
-0.000913777
0.0029099
-0.00117175
0.00303235
-0.00144174
0.00316868
-0.00172535
0.00332425
-0.00202433
0.00349904
0.00368991
-0.00233976
-6.4601e-05
0.000992327
-0.00021454
0.00212934
-0.000415253
0.00272243
-0.000642152
0.00299836
-0.000883364
0.00315111
-0.00113585
0.00328484
-0.00140027
0.0034331
-0.0016782
0.00360218
-0.00197136
0.0037922
0.00399927
-0.00228072
-5.95781e-05
0.00105191
-0.000201659
0.00227143
-0.000394807
0.00291558
-0.000615095
0.00321865
-0.000850245
0.00338626
-0.00109678
0.00353138
-0.00135518
0.00369149
-0.00162695
0.00387395
-0.00191386
0.00407911
0.00430213
-0.00221672
-5.42083e-05
0.00110611
-0.000187793
0.00240501
-0.000372721
0.00310051
-0.00058583
0.00343176
-0.000814431
0.00361486
-0.00105457
0.00377151
-0.00130647
0.0039434
-0.00157163
0.00413911
-0.00185187
0.00435935
0.00459816
-0.0021479
-4.85117e-05
0.00115463
-0.00017297
0.00252947
-0.000349015
0.00327656
-0.00055437
0.00363711
-0.000775934
0.00383643
-0.00100921
0.00400479
-0.00125418
0.00418836
-0.00151224
0.00439717
-0.00178544
0.00463255
0.00488715
-0.00207443
-4.25109e-05
0.00119714
-0.000157222
0.00264418
-0.000323711
0.00344304
-0.00052073
0.00383413
-0.000734767
0.00405046
-0.000960752
0.00423078
-0.00119834
0.00442594
-0.0014488
0.00464764
-0.00171457
0.00489832
0.00516912
-0.00199655
-3.62311e-05
0.00123337
-0.000140586
0.00274853
-0.000296837
0.0035993
-0.000484927
0.00402222
-0.000690942
0.00425648
-0.000909193
0.00444903
-0.00113897
0.00465572
-0.00138127
0.00488994
-0.00163907
0.00515612
0.00544454
-0.00191449
-2.97007e-05
0.00126307
-0.000123106
0.00284194
-0.000268428
0.00374462
-0.000446982
0.00420078
-0.000644481
0.00445398
-0.000854567
0.00465911
-0.00107619
0.00487734
-0.00130985
0.0051236
-0.00155888
0.00540515
0.00571455
-0.00182889
-2.29519e-05
0.00128602
-0.000104833
0.00292382
-0.00023852
0.0038783
-0.000406923
0.00436918
-0.0005954
0.00464245
-0.000796849
0.00486056
-0.00100988
0.00509036
-0.00123421
0.00534794
-0.00147178
0.00564271
0.00598206
-0.00173929
-1.60244e-05
0.00130204
-8.58253e-05
0.00299362
-0.000207158
0.00399964
-0.000364786
0.00452681
-0.000543746
0.00482141
-0.000736129
0.00505295
-0.000940371
0.00529461
-0.00115674
0.00556431
-0.00138275
0.00586872
0.00625155
-0.00165224
-8.98416e-06
0.00131103
-6.61352e-05
0.00305077
-0.00017439
0.00410789
-0.000320614
0.00467303
-0.000489555
0.00499035
-0.00067241
0.0052358
-0.000866993
0.00548919
-0.00107441
0.00577174
-0.00129538
0.00608969
0.00646939
-0.00151322
-2.07469e-06
0.0013131
-4.57735e-05
0.00309447
-0.000140273
0.00420239
-0.000274463
0.00480722
-0.000432859
0.00514875
-0.000605761
0.0054087
-0.00079008
0.00567351
-0.000986407
0.00596806
-0.00119459
0.00629787
0.00668833
-0.00141353
5.50116e-06
0.0013076
-2.45913e-05
0.00312456
-0.000104893
0.00428269
-0.000226409
0.00492874
-0.000373724
0.00529607
-0.000536317
0.0055713
-0.0007102
0.00584739
-0.000895672
0.00615353
-0.00109426
0.00649647
0.00689766
-0.0013036
1.2891e-05
0.00129471
-9.71574e-07
0.00313843
-6.84171e-05
0.00435014
-0.000176507
0.00503683
-0.000312234
0.00543179
-0.000464208
0.00572327
-0.000627597
0.00601078
-0.00080237
0.00632831
-0.000990184
0.00668428
0.00709567
-0.00118819
1.96551e-05
0.00127506
1.82156e-05
0.00313987
-3.11334e-05
0.00439949
-0.000124857
0.00513055
-0.000248508
0.00555544
-0.000389499
0.00586426
-0.000542206
0.00616349
-0.000706118
0.00649222
-0.000882683
0.00686085
0.00728218
-0.0010692
2.62818e-05
0.00124877
3.93941e-05
0.00312675
7.98034e-06
0.0044309
-7.17298e-05
0.00521026
-0.000182641
0.00566635
-0.000312228
0.00599385
-0.000453976
0.00630524
-0.00060677
0.00664501
-0.000771825
0.0070259
0.00745739
-0.00094703
3.28343e-05
0.00121594
6.06756e-05
0.00309891
4.55292e-05
0.00444605
-1.72351e-05
0.00527303
-0.000114694
0.00576381
-0.000232458
0.00611161
-0.000362946
0.00643572
-0.000504359
0.00678643
-0.000657574
0.00717912
0.00762078
-0.000820964
3.91103e-05
0.00117683
8.18492e-05
0.00305617
8.45952e-05
0.0044433
3.84021e-05
0.00531922
-4.48452e-05
0.00584706
-0.000150276
0.00621704
-0.000269184
0.00655463
-0.000398953
0.00691619
-0.000540042
0.0073202
0.00777164
-0.000690907
4.5015e-05
0.00113181
0.000102731
0.00299846
0.000123975
0.00442206
9.52256e-05
0.00534797
2.68726e-05
0.00591541
-6.5802e-05
0.00630972
-0.000172782
0.00666161
-0.000290617
0.00703403
-0.000419386
0.00744897
0.00790948
-0.000557218
5.04652e-05
0.00108135
0.000123049
0.00292587
0.000163333
0.00438177
0.000153
0.0053583
0.000100318
0.00596809
2.08187e-05
0.00638922
-7.38983e-05
0.00675633
-0.00017944
0.00713957
-0.000295751
0.00756529
0.00803397
-0.000420248
5.53718e-05
0.00102598
0.000142528
0.00283872
0.000202348
0.00432195
0.000211347
0.0053493
0.000175267
0.00600417
0.000109856
0.00645463
2.73535e-05
0.00683883
-6.57424e-05
0.00723267
-0.000169121
0.00766866
0.00814513
-0.000280281
5.96512e-05
0.000966327
0.000160894
0.00273748
0.000240638
0.00424221
0.000269914
0.00532003
0.000251416
0.00602267
0.000200701
0.00650534
0.000131462
0.00690807
5.06675e-05
0.00731346
-3.84608e-05
0.00775779
0.00824493
-0.00013826
6.3229e-05
0.000903098
0.000177867
0.00262284
0.000277769
0.00414231
0.000328279
0.00526952
0.000328443
0.00602251
0.000293231
0.00654056
0.000237487
0.00696381
0.000169794
0.00738115
9.23819e-05
0.0078352
0.00833682
4.89108e-07
6.60414e-05
0.000837056
0.000193156
0.00249572
0.00031326
0.0040222
0.000385936
0.00519684
0.000405945
0.0060025
0.000387165
0.00655933
0.000345458
0.00700552
0.000290851
0.00743576
0.000227437
0.00789862
0.00840702
0.000157242
6.80377e-05
0.000769018
0.000206447
0.00235731
0.000346581
0.00388207
0.000442298
0.00510113
0.000483426
0.00596137
0.000482164
0.0065606
0.000455198
0.00703249
0.000414203
0.00747676
0.000364865
0.00794796
0.00846304
0.000308849
6.91859e-05
0.000699833
0.000217459
0.00220904
0.000377161
0.00372236
0.000496685
0.0049816
0.000560289
0.00589777
0.000577791
0.00654309
0.000566384
0.00704389
0.000539391
0.00750375
0.000503779
0.00798357
0.0085049
0.000461911
6.94734e-05
0.000630359
0.000225936
0.00205258
0.000404394
0.00354391
0.000548322
0.00483767
0.000635812
0.00581028
0.000673496
0.00650541
0.000678597
0.00703879
0.000666017
0.00751633
0.000644198
0.00800539
0.00853264
0.000616461
6.8908e-05
0.000561451
0.000231658
0.00188983
0.000427651
0.00334791
0.000596334
0.00466899
0.000709138
0.00569747
0.000768605
0.00644594
0.00079137
0.00701603
0.000793784
0.00751392
0.000785991
0.00801318
0.00854632
0.000772308
6.75188e-05
0.000493932
0.000234462
0.00172288
0.000446308
0.00313607
0.000639757
0.00447554
0.00077926
0.00555797
0.000862298
0.00636291
0.000904147
0.00697418
0.000922353
0.00749571
0.000928916
0.00800662
0.00854593
0.000929304
6.53575e-05
0.000428575
0.000234259
0.00155398
0.000459772
0.00291056
0.000677551
0.00425776
0.000845012
0.00539051
0.00095358
0.00625434
0.00101623
0.00691153
0.00105128
0.00746066
0.00107268
0.00798522
0.00853134
0.00108727
6.24964e-05
0.000366079
0.000231049
0.00138543
0.000467532
0.00267407
0.000708629
0.00401667
0.000905065
0.00519407
0.00104124
0.00611816
0.00112673
0.00682604
0.00118
0.00740739
0.00121691
0.00794832
0.00850229
0.00124596
5.90276e-05
0.000307051
0.000224933
0.00121953
0.000469199
0.00242981
0.000731901
0.00375396
0.000957935
0.00496804
0.00112384
0.00595225
0.00123453
0.00671535
0.00130777
0.00733415
0.00136115
0.00789494
0.00845835
0.00140509
5.50582e-05
0.000251993
0.000216115
0.00105847
0.000464565
0.00218136
0.00074634
0.00347219
0.00100201
0.00471237
0.00119968
0.00575459
0.00133823
0.00657679
0.00143363
0.00723876
0.0015048
0.00782376
0.0083989
0.00156425
5.07061e-05
0.000201287
0.000204901
0.000904274
0.000453651
0.00193261
0.000751065
0.00317477
0.0010356
0.00442784
0.00126679
0.0055234
0.0014361
0.00640747
0.00155633
0.00711853
0.00164708
0.00773302
0.00832303
0.00172295
4.60947e-05
0.000155192
0.000191676
0.000758692
0.000436739
0.00168754
0.000745447
0.00286607
0.00105702
0.00411627
0.00132296
0.00525745
0.00152605
0.00620438
0.00167428
0.00697029
0.00178693
0.00762038
0.00822944
0.00188051
4.13465e-05
0.000113845
0.000176891
0.000623147
0.000414388
0.00145005
0.000729226
0.00255123
0.00106473
0.00378076
0.00136582
0.00495636
0.00160558
0.00596463
0.00178544
0.00679044
0.00192295
0.00748286
0.0081163
0.00203609
3.65785e-05
7.7267e-05
0.000161028
0.000498698
0.00038741
0.00122366
0.000702614
0.00223602
0.0010575
0.00342587
0.00139289
0.00462098
0.0016718
0.00568572
0.00188723
0.00657501
0.00205328
0.00731681
0.00798108
0.0021885
3.18965e-05
4.53705e-05
0.000144572
0.000386022
0.000356817
0.00101142
0.000666372
0.00192647
0.00103459
0.00305765
0.00140179
0.00425378
0.00172147
0.00536604
0.00197651
0.00631996
0.00217547
0.00711785
0.00782038
0.00233617
2.73924e-05
1.79781e-05
0.000127987
0.000285428
0.000323747
0.00081566
0.000621815
0.0016284
0.000996008
0.00268346
0.0013905
0.00385929
0.00175116
0.00500538
0.00204955
0.00602157
0.00228636
0.00688104
0.00762981
0.00247693
2.31419e-05
-5.1638e-06
0.000111691
0.000196879
0.000289366
0.000637985
0.000570735
0.00134703
0.00094267
0.00231152
0.00135769
0.00344427
0.00175748
0.00460559
0.00210205
0.005677
0.00238194
0.00660115
0.0074039
0.00260785
1.92039e-05
-2.43677e-05
9.60418e-05
0.000120041
0.000254791
0.000479236
0.000515248
0.00108658
0.00087649
0.00195028
0.0013031
0.00301766
0.00173747
0.00417122
0.00212937
0.0052851
0.00245733
0.00627319
0.00713615
0.00272507
1.56209e-05
-3.99887e-05
8.13307e-05
5.4331e-05
0.000221011
0.000339555
0.00045758
0.000850007
0.000800291
0.00160757
0.00122789
0.00259006
0.00168912
0.00370999
0.00212685
0.00484738
0.00250682
1.24207e-05
-5.24094e-05
6.77785e-05
-1.02675e-06
0.000188854
0.000218479
0.000399863
0.000638998
0.000717536
0.0012899
0.00113483
0.00217276
0.00161202
0.00323279
0.00436895
9.6175e-06
-6.20269e-05
5.55367e-05
-4.69459e-05
0.000158956
0.00011506
0.000343955
0.000453999
0.000631929
0.00100192
0.00102819
0.0017765
0.00150792
0.00275307
7.21268e-06
-6.92396e-05
4.46913e-05
-8.44245e-05
0.000131762
2.79891e-05
0.000291338
0.000294423
0.000546981
0.00074628
0.000913289
0.00141019
5.19555e-06
-7.44351e-05
3.52653e-05
-0.000114494
0.000107528
-4.42731e-05
0.000243066
0.000158884
0.000465649
0.000523697
3.54342e-06
-7.79785e-05
2.72231e-05
-0.000138174
8.63314e-05
-0.000103381
0.000199763
4.54533e-05
2.22226e-06
-8.02008e-05
2.04759e-05
-0.000156428
6.80936e-05
-0.000150999
-4.81057e-05
1.18885e-06
-8.13897e-05
1.489e-05
-0.000170129
5.26014e-05
-0.000188711
3.96992e-07
-8.17866e-05
1.03001e-05
-0.000180032
-2.36852e-07
-8.15498e-05
-0.000186792
-7.26878e-07
-8.08229e-05
-7.96989e-05
0.0067628
0.0011942
-0.0067109
0.00681309
0.00135491
0.00686153
0.00151591
0.00690775
0.00167678
0.00695121
0.00183707
0.00699106
0.0019962
0.00702599
0.00215346
0.00705406
0.00230793
0.00707239
0.00245832
0.00707694
0.0026029
0.0027393
0.00693085
0.00114186
-0.00687851
0.00698259
0.00130317
0.00703361
0.00146489
0.00708373
0.00162666
0.00713265
0.00178814
0.00717994
0.00194891
0.0072249
0.0021085
0.00726652
0.00226632
0.00730324
0.0024216
0.0073328
0.00257334
0.00272011
0.00710705
0.00109126
-0.00705644
0.00715803
0.0012522
0.00720933
0.00141358
0.0072609
0.0015751
0.00731258
0.00173646
0.00736415
0.00189734
0.00741527
0.00205738
0.00746542
0.00221616
0.00751386
0.00237317
0.00755945
0.00252775
0.00267903
0.00729553
0.00104287
-0.00724714
0.00734483
0.0012029
0.0073951
0.0013633
0.00744639
0.00152381
0.0074987
0.00168415
0.00755198
0.00184406
0.00760612
0.00200324
0.00766091
0.00216137
0.00771601
0.00231807
0.00777087
0.00247289
0.00262533
0.00749666
0.000996551
-0.00745034
0.00754423
0.00115533
0.00759314
0.00131439
0.00764349
0.00147346
0.00769533
0.00163231
0.00774873
0.00179067
0.00780368
0.00194829
0.00786013
0.00210491
0.00791794
0.00226026
0.00797683
0.002414
0.00256589
0.00770879
0.000951976
-0.00766421
0.00775487
0.00110924
0.00780256
0.00126671
0.00785191
0.00142411
0.007903
0.00158122
0.00795589
0.00173777
0.00801063
0.00189355
0.00806724
0.00204831
0.00812568
0.00220182
0.00818588
0.0023538
0.0025041
0.0079309
0.000908941
-0.00788786
0.00797568
0.00106446
0.00802227
0.00122012
0.00807073
0.00137566
0.00812111
0.00153084
0.00817346
0.00168542
0.00822783
0.00183918
0.00828428
0.00199186
0.00834284
0.00214326
0.00840356
0.00229308
0.0024412
0.00816249
0.000867337
-0.00812089
0.00820606
0.00102089
0.00825166
0.00117452
0.00829931
0.001328
0.00834908
0.00148107
0.008401
0.0016335
0.0084551
0.00178507
0.00851145
0.00193552
0.00857007
0.00208464
0.00863099
0.00223216
0.00237795
0.00840336
0.000827113
-0.00836313
0.00844577
0.000978481
0.0084904
0.00112989
0.0085373
0.0012811
0.0085865
0.00143188
0.00863802
0.00158199
0.00869188
0.00173121
0.0087481
0.00187929
0.00880671
0.00202604
0.00886768
0.00217118
0.00231457
0.0086532
0.000788194
-0.00861428
0.0086945
0.000937178
0.00873822
0.00108617
0.00878439
0.00123493
0.00883302
0.00138324
0.00888414
0.00153087
0.00893775
0.0016776
0.00899386
0.00182318
0.00905247
0.00196742
0.00911358
0.00211007
0.00225094
0.00891195
0.000750533
-0.00887429
0.00895218
0.000896948
0.00899501
0.00104334
0.00904045
0.00118949
0.00908852
0.00133517
0.00913924
0.00148015
0.00919261
0.00162423
0.00924863
0.00176717
0.0093073
0.00190876
0.0093686
0.00204877
0.00218699
0.00917963
0.000714073