/*--------------------------------*- C++ -*----------------------------------*\
  =========                 |
  \\      /  F ield         | OpenFOAM: The Open Source CFD Toolbox
   \\    /   O peration     | Website:  https://openfoam.org
    \\  /    A nd           | Version:  7
     \\/     M anipulation  |
\*---------------------------------------------------------------------------*/
FoamFile
{
    version     2.0;
    format      ascii;
    class       volScalarField;
    location    "30";
    object      p;
}
// * * * * * * * * * * * * * * * * * * * * * * * * * * * * * * * * * * * * * //

dimensions      [0 2 -2 0 0 0 0];

internalField   nonuniform List<scalar> 
6386
(
-0.209103
-0.211065
-0.211988
-0.212736
-0.213381
-0.213948
-0.21446
-0.214922
-0.215331
-0.215696
-0.209282
-0.211223
-0.212132
-0.212868
-0.213499
-0.214052
-0.214548
-0.214993
-0.21538
-0.215709
-0.209654
-0.21155
-0.212435
-0.213145
-0.21375
-0.214275
-0.214741
-0.215153
-0.2155
-0.215761
-0.210212
-0.212043
-0.21289
-0.213562
-0.214128
-0.214612
-0.215032
-0.215394
-0.215683
-0.215836
-0.210947
-0.212695
-0.213492
-0.214113
-0.214626
-0.215053
-0.215411
-0.215706
-0.21592
-0.215917
-0.211849
-0.213497
-0.214232
-0.214788
-0.215233
-0.215589
-0.215866
-0.216073
-0.216196
-0.215973
-0.212907
-0.21444
-0.215099
-0.215577
-0.215939
-0.216208
-0.216386
-0.216481
-0.216503
-0.21597
-0.214107
-0.215512
-0.216086
-0.216471
-0.216733
-0.216897
-0.216955
-0.216912
-0.216829
-0.215859
-0.215439
-0.216706
-0.21718
-0.217457
-0.217604
-0.217645
-0.217564
-0.217347
-0.217176
-0.215563
-0.216891
-0.218012
-0.218375
-0.218528
-0.218541
-0.218442
-0.218201
-0.217773
-0.217571
-0.214989
-0.218455
-0.219423
-0.219661
-0.219673
-0.219535
-0.219278
-0.218859
-0.218168
-0.218042
-0.214219
-0.220128
-0.220936
-0.221035
-0.220888
-0.220578
-0.220146
-0.219532
-0.218512
-0.218272
-0.213493
-0.221908
-0.222549
-0.222492
-0.222166
-0.221666
-0.22104
-0.220224
-0.218999
-0.218377
-0.212487
-0.223799
-0.224265
-0.224034
-0.223507
-0.222794
-0.221956
-0.220912
-0.21947
-0.218542
-0.211195
-0.225811
-0.226091
-0.225666
-0.224911
-0.223962
-0.222895
-0.221609
-0.219938
-0.218731
-0.209728
-0.228041
-0.227395
-0.226384
-0.225171
-0.223854
-0.222314
-0.220441
-0.218848
-0.208258
-0.230131
-0.229234
-0.227936
-0.226429
-0.224836
-0.22302
-0.221013
-0.218781
-0.206964
-0.232385
-0.231205
-0.229585
-0.227749
-0.22585
-0.223725
-0.221687
-0.21833
-0.205955
-0.233337
-0.231352
-0.229152
-0.226917
-0.224447
-0.222494
-0.217398
-0.205989
-0.235657
-0.233271
-0.23067
-0.228067
-0.22522
-0.223383
-0.216368
-0.210369
-0.235379
-0.232342
-0.22934
-0.226084
-0.224155
-0.215894
-0.221525
-0.234218
-0.230781
-0.227092
-0.224689
-0.216161
-0.220623
-0.236351
-0.23244
-0.228283
-0.22509
-0.216674
-0.217852
-0.234361
-0.229667
-0.225518
-0.217061
-0.21514
-0.231239
-0.226014
-0.217204
-0.212396
-0.226558
-0.21703
-0.209723
-0.216517
-0.207051
-0.204304
-0.215983
-0.204636
-0.216853
-0.207398
-0.226884
-0.217376
-0.210085
-0.231549
-0.226343
-0.217561
-0.212774
-0.234659
-0.229977
-0.22585
-0.217428
-0.215535
-0.236644
-0.232737
-0.228593
-0.225426
-0.217052
-0.218266
-0.23451
-0.231078
-0.227403
-0.225031
-0.21655
-0.221058
-0.235674
-0.232635
-0.229638
-0.226399
-0.224503
-0.216293
-0.221985
-0.235959
-0.233567
-0.230965
-0.228369
-0.225539
-0.223739
-0.216778
-0.210851
-0.23364
-0.23165
-0.229449
-0.227223
-0.224773
-0.222856
-0.217818
-0.206479
-0.232694
-0.231508
-0.229883
-0.228049
-0.22616
-0.224057
-0.222056
-0.218758
-0.20645
-0.23044
-0.229537
-0.228235
-0.226731
-0.225149
-0.223356
-0.221388
-0.219216
-0.207465
-0.228281
-0.228347
-0.227696
-0.226682
-0.225474
-0.224169
-0.222655
-0.220821
-0.219289
-0.208763
-0.226128
-0.226394
-0.225963
-0.225207
-0.224263
-0.223211
-0.221951
-0.220321
-0.219174
-0.210235
-0.22411
-0.224562
-0.224327
-0.223799
-0.223092
-0.22227
-0.221252
-0.219853
-0.218977
-0.211702
-0.222211
-0.222837
-0.222777
-0.222451
-0.221958
-0.221349
-0.220559
-0.219382
-0.218804
-0.21299
-0.22042
-0.221214
-0.221309
-0.221164
-0.220862
-0.220447
-0.219861
-0.218898
-0.218686
-0.21398
-0.218734
-0.219688
-0.219923
-0.219938
-0.219808
-0.219569
-0.219175
-0.218528
-0.218483
-0.214665
-0.217153
-0.218262
-0.218622
-0.218777
-0.218799
-0.218718
-0.218502
-0.218113
-0.217975
-0.215427
-0.215682
-0.216938
-0.21741
-0.217689
-0.217845
-0.217902
-0.217846
-0.217665
-0.217547
-0.215984
-0.214329
-0.215724
-0.216295
-0.216683
-0.216953
-0.217132
-0.217214
-0.217204
-0.217169
-0.21625
-0.213104
-0.214628
-0.215286
-0.215767
-0.216136
-0.216418
-0.216617
-0.216743
-0.216807
-0.216324
-0.21202
-0.21366
-0.214393
-0.214952
-0.215404
-0.215772
-0.216068
-0.216302
-0.216461
-0.216283
-0.21109
-0.212832
-0.213627
-0.21425
-0.214768
-0.215207
-0.21558
-0.215897
-0.216141
-0.216177
-0.210324
-0.212151
-0.212997
-0.213671
-0.214241
-0.214733
-0.215166
-0.215546
-0.215859
-0.216044
-0.209735
-0.211628
-0.212512
-0.213223
-0.213832
-0.214363
-0.214838
-0.215263
-0.215628
-0.215911
-0.209332
-0.21127
-0.212179
-0.212915
-0.213549
-0.214105
-0.214607
-0.215059
-0.215457
-0.215801
-0.20912
-0.211081
-0.212004
-0.212752
-0.213397
-0.213965
-0.214479
-0.214944
-0.215357
-0.215727
-0.216132
-0.216433
-0.216735
-0.217033
-0.217323
-0.217602
-0.217865
-0.218103
-0.218308
-0.218469
-0.218575
-0.218612
-0.218569
-0.218429
-0.218176
-0.217793
-0.217257
-0.216543
-0.21562
-0.214451
-0.212997
-0.211197
-0.20899
-0.206302
-0.203044
-0.199101
-0.194402
-0.188846
-0.182237
-0.174541
-0.165523
-0.155334
-0.143564
-0.130778
-0.116329
-0.101146
-0.0850688
-0.0675275
-0.0529039
-0.0314587
-0.0244443
0.0045667
-0.216181
-0.216462
-0.216754
-0.217045
-0.217328
-0.217601
-0.217859
-0.218093
-0.218294
-0.218452
-0.218556
-0.218595
-0.218555
-0.218423
-0.218182
-0.217816
-0.217303
-0.216618
-0.215731
-0.214604
-0.213197
-0.211448
-0.209294
-0.206656
-0.203443
-0.19954
-0.194854
-0.189297
-0.182669
-0.17493
-0.165843
-0.155566
-0.143687
-0.130792
-0.116234
-0.100958
-0.0848231
-0.0672358
-0.0526292
-0.0312287
-0.0243074
0.00451861
-0.216308
-0.216556
-0.216831
-0.217111
-0.217385
-0.217651
-0.217902
-0.21813
-0.218327
-0.218482
-0.218585
-0.218624
-0.218588
-0.218463
-0.218235
-0.217886
-0.217396
-0.216742
-0.215892
-0.21481
-0.213451
-0.211757
-0.209658
-0.207075
-0.20391
-0.20005
-0.19539
-0.189835
-0.18319
-0.175414
-0.166259
-0.1559
-0.143914
-0.130913
-0.116242
-0.100875
-0.084671
-0.0670465
-0.0524441
-0.0310802
-0.024259
0.00437949
-0.216507
-0.216705
-0.216957
-0.217225
-0.217488
-0.217745
-0.217989
-0.218211
-0.218403
-0.218555
-0.218656
-0.218695
-0.218663
-0.218545
-0.218329
-0.217998
-0.217532
-0.216909
-0.216097
-0.215061
-0.213753
-0.212115
-0.210075
-0.207549
-0.204436
-0.20062
-0.195993
-0.190446
-0.183788
-0.175981
-0.166761
-0.156327
-0.144233
-0.131134
-0.116347
-0.100895
-0.0846145
-0.0669587
-0.0523575
-0.0310116
-0.0242933
0.00415654
-0.216764
-0.2169
-0.217124
-0.217378
-0.217629
-0.217876
-0.218112
-0.218328
-0.218515
-0.218662
-0.218761
-0.218801
-0.218772
-0.218661
-0.218457
-0.218143
-0.217702
-0.21711
-0.216338
-0.215348
-0.214093
-0.212513
-0.210533
-0.208067
-0.205008
-0.201239
-0.196648
-0.191115
-0.184447
-0.176614
-0.167333
-0.156831
-0.144633
-0.131442
-0.11654
-0.101008
-0.0846489
-0.0669645
-0.0523746
-0.0310887
-0.0243305
0.00385377
-0.21707
-0.217127
-0.217319
-0.21756
-0.217796
-0.218034
-0.218262
-0.218472
-0.218653
-0.218796
-0.218893
-0.218932
-0.218906
-0.218803
-0.21861
-0.218314
-0.217898
-0.217337
-0.216604
-0.215661
-0.21446
-0.212938
-0.211019
-0.208615
-0.20561
-0.201891
-0.197339
-0.191826
-0.185151
-0.177297
-0.16796
-0.157396
-0.145098
-0.131823
-0.11681
-0.101206
-0.0847701
-0.0670501
-0.0524385
-0.0312736
-0.0244326
0.0034761
-0.217413
-0.217371
-0.217529
-0.217757
-0.21798
-0.218207
-0.218428
-0.218631
-0.218806
-0.218946
-0.21904
-0.219079
-0.219056
-0.218959
-0.218779
-0.2185
-0.218108
-0.217579
-0.216885
-0.215989
-0.214841
-0.213378
-0.211521
-0.209179
-0.206226
-0.20254
-0.198048
-0.192561
-0.185883
-0.178014
-0.168624
-0.158006
-0.145613
-0.132264
-0.117143
-0.101475
-0.0849733
-0.0672208
-0.052571
-0.031513
-0.0245852
0.00303091
-0.217792
-0.217616
-0.217741
-0.217958
-0.218167
-0.218385
-0.218598
-0.218794
-0.218964
-0.2191
-0.219191
-0.219231
-0.21921
-0.219121
-0.218952
-0.218691
-0.218322
-0.217825
-0.217169
-0.21632
-0.215224
-0.21382
-0.212025
-0.209745
-0.206845
-0.203217
-0.198763
-0.193303
-0.186625
-0.178746
-0.169309
-0.158644
-0.146163
-0.132748
-0.117526
-0.101802
-0.0852199
-0.0674745
-0.0527824
-0.0318031
-0.0247649
0.00252704
-0.218243
-0.217846
-0.217941
-0.218151
-0.218347
-0.218554
-0.218759
-0.21895
-0.219115
-0.219246
-0.219335
-0.219375
-0.219358
-0.219275
-0.219118
-0.218875
-0.21853
-0.218063
-0.217446
-0.216641
-0.215598
-0.214251
-0.212517
-0.210298
-0.20745
-0.203914
-0.199467
-0.194036
-0.187361
-0.179477
-0.169997
-0.159294
-0.146731
-0.13326
-0.117946
-0.102173
-0.0855272
-0.0677701
-0.0530573
-0.0321427
-0.0249561
0.00197421
-0.218819
-0.218047
-0.218117
-0.218325
-0.218507
-0.218704
-0.218901
-0.219086
-0.219246
-0.219374
-0.219461
-0.219502
-0.219488
-0.219413
-0.219268
-0.219042
-0.21872
-0.218283
-0.217703
-0.216942
-0.215949
-0.214659
-0.212984
-0.210825
-0.208019
-0.204554
-0.200143
-0.194745
-0.188075
-0.180192
-0.17067
-0.159938
-0.147303
-0.133783
-0.118392
-0.102574
-0.0858802
-0.0681016
-0.05338
-0.0325245
-0.0251466
0.00138272
-0.219209
-0.218301
-0.218271
-0.21847
-0.218641
-0.218824
-0.219009
-0.21919
-0.219345
-0.21947
-0.219557
-0.219599
-0.21959
-0.219523
-0.21939
-0.219181
-0.218883
-0.218474
-0.21793
-0.217212
-0.216268
-0.215031
-0.213415
-0.211314
-0.20853
-0.205151
-0.200774
-0.195411
-0.18875
-0.180869
-0.171322
-0.160562
-0.147867
-0.134305
-0.118849
-0.10299
-0.0862651
-0.0684611
-0.0537374
-0.0329399
-0.0253265
0.000762974
-0.219465
-0.218611
-0.218394
-0.218575
-0.218736
-0.218901
-0.21908
-0.219252
-0.219402
-0.219524
-0.219611
-0.219656
-0.219652
-0.219595
-0.219475
-0.219284
-0.219007
-0.218628
-0.218117
-0.21744
-0.216542
-0.215357
-0.213795
-0.21175
-0.209132
-0.205693
-0.20136
-0.196026
-0.189376
-0.181501
-0.171932
-0.161153
-0.148408
-0.134813
-0.119306
-0.103411
-0.0866707
-0.0688382
-0.0541174
-0.0333812
-0.0254877
0.000124963
-0.219772
-0.218922
-0.218481
-0.218642
-0.218787
-0.218928
-0.219094
-0.219258
-0.219403
-0.219524
-0.219612
-0.219661
-0.219665
-0.219618
-0.219513
-0.219339
-0.219086
-0.218733
-0.218256
-0.217617
-0.216762
-0.215626
-0.214115
-0.212102
-0.209527
-0.206169
-0.201875
-0.196574
-0.189938
-0.182074
-0.172489
-0.161699
-0.148915
-0.135295
-0.119753
-0.103825
-0.0870868
-0.0692235
-0.0545082
-0.0338416
-0.0256243
-0.000522129
-0.220116
-0.219244
-0.218536
-0.218667
-0.218787
-0.218894
-0.219042
-0.219197
-0.219337
-0.219458
-0.21955
-0.219605
-0.219619
-0.219584
-0.219493
-0.219339
-0.219108
-0.218782
-0.218336
-0.217733
-0.216919
-0.215828
-0.214365
-0.21243
-0.209872
-0.206567
-0.202312
-0.197045
-0.190425
-0.182576
-0.172982
-0.162188
-0.149379
-0.13574
-0.12018
-0.104222
-0.0875036
-0.0696086
-0.054899
-0.0343144
-0.0257323
-0.00117021
-0.220481
-0.219591
-0.218567
-0.218645
-0.218722
-0.218783
-0.21891
-0.219054
-0.21919
-0.219313
-0.219411
-0.219476
-0.219501
-0.219481
-0.219408
-0.219273
-0.219064
-0.218765
-0.218348
-0.21778
-0.217004
-0.215953
-0.214524
-0.212664
-0.210133
-0.206878
-0.202659
-0.197427
-0.190827
-0.182998
-0.173402
-0.162611
-0.149789
-0.136137
-0.120579
-0.104592
-0.0879112
-0.0699858
-0.0552795
-0.0347934
-0.025809
-0.00181237
-0.220861
-0.219936
-0.21856
-0.218565
-0.218574
-0.218575
-0.218677
-0.218812
-0.218947
-0.219075
-0.219183
-0.219261
-0.219302
-0.219299
-0.219245
-0.219131
-0.218946
-0.218672
-0.218284
-0.217748
-0.217006
-0.215996
-0.214602
-0.212781
-0.2103
-0.207091
-0.202908
-0.197712
-0.191133
-0.183327
-0.173739
-0.162956
-0.150136
-0.136477
-0.120939
-0.104926
-0.0882988
-0.070347
-0.0556398
-0.0352719
-0.0258528
-0.00244271
-0.221196
-0.220168
-0.218467
-0.218402
-0.218318
-0.218251
-0.21833
-0.218459
-0.218597
-0.218734
-0.218857
-0.218953
-0.219013
-0.219031
-0.218998
-0.218907
-0.218745
-0.218496
-0.218135
-0.217628
-0.216917
-0.215934
-0.214637
-0.212801
-0.210362
-0.207196
-0.203048
-0.197887
-0.191334
-0.183555
-0.173983
-0.163216
-0.150412
-0.136752
-0.121253
-0.105217
-0.0886609
-0.0706879
-0.0559758
-0.0357446
-0.0258664
-0.00305673
-0.221416
-0.220158
-0.218256
-0.218151
-0.217944
-0.217801
-0.217858
-0.217984
-0.218128
-0.218278
-0.218419
-0.218536
-0.218619
-0.21866
-0.21865
-0.218583
-0.218446
-0.218223
-0.217889
-0.217409
-0.216728
-0.21571
-0.214487
-0.212711
-0.210311
-0.207186
-0.203074
-0.197954
-0.191431
-0.183688
-0.174144
-0.163402
-0.150632
-0.13698
-0.121541
-0.105483
-0.0890126
-0.0710187
-0.056299
-0.0362132
-0.0258598
-0.00365357
-0.222313
-0.219874
-0.217877
-0.217726
-0.217351
-0.217125
-0.217165
-0.217296
-0.217456
-0.217629
-0.217797
-0.217945
-0.21806
-0.218132
-0.218154
-0.218118
-0.21801
-0.217817
-0.217511
-0.217062
-0.216416
-0.215589
-0.214227
-0.212496
-0.210137
-0.207058
-0.20299
-0.197918
-0.191438
-0.183742
-0.17424
-0.163535
-0.150817
-0.137176
-0.121814
-0.105733
-0.0893591
-0.0713445
-0.0566065
-0.0366814
-0.0258281
-0.00423775
-0.222125
-0.217509
-0.216509
-0.216608
-0.216171
-0.215963
-0.216061
-0.216256
-0.216477
-0.216708
-0.216934
-0.217138
-0.217308
-0.217432
-0.217502
-0.217509
-0.217443
-0.217287
-0.217015
-0.216594
-0.215949
-0.215098
-0.213844
-0.212157
-0.209831
-0.206786
-0.202749
-0.197709
-0.191259
-0.18359
-0.174126
-0.163439
-0.15078
-0.137144
-0.121877
-0.10579
-0.0895177
-0.0715461
-0.0567549
-0.037103
-0.0256887
-0.00480793
-0.206799
-0.208719
-0.213384
-0.214841
-0.214709
-0.214642
-0.214848
-0.215138
-0.215432
-0.215723
-0.216005
-0.216263
-0.216483
-0.216655
-0.21677
-0.216819
-0.216792
-0.216674
-0.216443
-0.21608
-0.215532
-0.21462
-0.213333
-0.211621
-0.209274
-0.2062
-0.202135
-0.197053
-0.19058
-0.182868
-0.173413
-0.162697
-0.150117
-0.136482
-0.121373
-0.105352
-0.0892342
-0.0714872
-0.0565836
-0.0375222
-0.0253038
-0.00551304
-0.205906
-0.206017
-0.210246
-0.211876
-0.211806
-0.211761
-0.212087
-0.212553
-0.213006
-0.213427
-0.213824
-0.214189
-0.214505
-0.214763
-0.214953
-0.215066
-0.21509
-0.215009
-0.214792
-0.214397
-0.213725
-0.212906
-0.211626
-0.209877
-0.207485
-0.20436
-0.200247
-0.195119
-0.188629
-0.180904
-0.171511
-0.16084
-0.14844
-0.134918
-0.120106
-0.104279
-0.0884551
-0.0710605
-0.0561351
-0.0377822
-0.0248012
-0.00618925
-0.202778
-0.202714
-0.205435
-0.206989
-0.207327
-0.207572
-0.208118
-0.208805
-0.209468
-0.210074
-0.210636
-0.211151
-0.211606
-0.211988
-0.212286
-0.212492
-0.212591
-0.212566
-0.212388
-0.212029
-0.211458
-0.210523
-0.209201
-0.207405
-0.204958
-0.201778
-0.197619
-0.192454
-0.185967
-0.178258
-0.168964
-0.158389
-0.14622
-0.132883
-0.118413
-0.10287
-0.0873674
-0.0704101
-0.055497
-0.0378693
-0.0242854
-0.00670264
-0.197122
-0.19791
-0.199345
-0.200533
-0.201284
-0.201979
-0.202835
-0.203776
-0.204682
-0.205518
-0.206291
-0.207002
-0.207638
-0.208184
-0.208628
-0.208962
-0.209168
-0.209231
-0.20912
-0.208812
-0.208242
-0.207321
-0.205978
-0.204152
-0.201671
-0.198457
-0.194279
-0.189107
-0.182658
-0.175007
-0.165859
-0.155436
-0.143545
-0.130466
-0.116371
-0.101194
-0.0860256
-0.0695789
-0.054704
-0.0378049
-0.0237678
-0.00707077
-0.188992
-0.191203
-0.192137
-0.192951
-0.193949
-0.195085
-0.196295
-0.197506
-0.198662
-0.199743
-0.200752
-0.201684
-0.202526
-0.203263
-0.203881
-0.204368
-0.204708
-0.204883
-0.204862
-0.204617
-0.204082
-0.203204
-0.201863
-0.20003
-0.197541
-0.194324
-0.190162
-0.185023
-0.17866
-0.171118
-0.16217
-0.151964
-0.140401
-0.127656
-0.113971
-0.0992411
-0.0844295
-0.0685489
-0.053765
-0.0375726
-0.0232495
-0.00730539
-0.179078
-0.182771
-0.183841
-0.184511
-0.185666
-0.187173
-0.188738
-0.19023
-0.191628
-0.192943
-0.194181
-0.195333
-0.196382
-0.197312
-0.198108
-0.198757
-0.199239
-0.199538
-0.199618
-0.19945
-0.198973
-0.198135
-0.19685
-0.195036
-0.19257
-0.189382
-0.185279
-0.180217
-0.173989
-0.166614
-0.157917
-0.147997
-0.136808
-0.124472
-0.111232
-0.0970162
-0.0825949
-0.0673154
-0.0526942
-0.0371696
-0.0227302
-0.0074249
-0.168398
-0.173165
-0.174686
-0.17548
-0.176803
-0.178603
-0.180488
-0.182253
-0.183881
-0.185409
-0.186852
-0.188202
-0.18944
-0.190548
-0.191508
-0.192309
-0.192927
-0.193346
-0.193528
-0.193446
-0.193038
-0.192266
-0.19104
-0.189271
-0.186856
-0.183731
-0.179722
-0.174781
-0.168732
-0.161577
-0.153178
-0.143602
-0.132829
-0.120961
-0.1082
-0.0945468
-0.0805538
-0.0658903
-0.0515105
-0.0366082
-0.022207
-0.00745076
-0.157511
-0.162937
-0.165003
-0.166107
-0.167643
-0.169683
-0.171836
-0.173851
-0.175694
-0.177413
-0.179036
-0.18056
-0.181962
-0.183224
-0.184329
-0.185263
-0.186002
-0.186529
-0.186806
-0.186806
-0.186471
-0.185765
-0.184604
-0.182903
-0.180563
-0.177525
-0.173639
-0.168856
-0.163021
-0.156129
-0.148062
-0.138876
-0.128549
-0.11719
-0.104935
-0.091872
-0.0783446
-0.0642958
-0.0502329
-0.0359088
-0.0216751
-0.00740381
-0.146742
-0.152536
-0.155102
-0.156588
-0.158374
-0.160623
-0.162996
-0.16523
-0.167271
-0.169165
-0.170948
-0.172621
-0.174166
-0.175563
-0.176792
-0.17784
-0.178684
-0.179306
-0.179668
-0.179744
-0.179479
-0.178834
-0.17773
-0.176122
-0.173875
-0.170944
-0.167201
-0.162599
-0.157002
-0.150401
-0.142688
-0.13392
-0.124058
-0.11323
-0.1015
-0.0890365
-0.0760061
-0.0625601
-0.0488788
-0.0350958
-0.0211298
-0.00730212
-0.1363
-0.142243
-0.14521
-0.147073
-0.149117
-0.151556
-0.154111
-0.156533
-0.158753
-0.160806
-0.162733
-0.16454
-0.16621
-0.167724
-0.169062
-0.17021
-0.171147
-0.171853
-0.172293
-0.17244
-0.172242
-0.171661
-0.170629
-0.169102
-0.166957
-0.164147
-0.16056
-0.156156
-0.15081
-0.144516
-0.137168
-0.128829
-0.11944
-0.109148
-0.097953
-0.0860843
-0.0735735
-0.0607129
-0.0474629
-0.0341932
-0.0205677
-0.00716021
-0.126264
-0.132216
-0.13548
-0.137674
-0.139958
-0.142567
-0.145275
-0.147856
-0.150232
-0.152431
-0.154488
-0.156414
-0.158195
-0.159814
-0.16125
-0.162489
-0.16351
-0.164292
-0.164805
-0.16502
-0.164889
-0.164378
-0.16342
-0.161975
-0.159937
-0.157259
-0.153837
-0.14964
-0.144551
-0.138569
-0.131589
-0.12368
-0.114763
-0.105
-0.0943411
-0.0830537
-0.0710756
-0.0587817
-0.0459974
-0.033222
-0.0199871
-0.0069892
-0.116663
-0.122538
-0.126009
-0.128471
-0.130963
-0.133718
-0.136552
-0.139263
-0.141773
-0.144099
-0.146273
-0.148306
-0.150188
-0.151901
-0.153426
-0.154748
-0.155847
-0.156703
-0.157285
-0.157568
-0.157506
-0.157067
-0.156187
-0.154829
-0.152902
-0.150363
-0.147113
-0.143129
-0.138298
-0.132629
-0.126014
-0.118527
-0.110075
-0.100828
-0.0906993
-0.0799753
-0.0685343
-0.0567891
-0.0444919
-0.0321986
-0.0193876
-0.00679733
-0.10752
-0.11326
-0.11686
-0.119527
-0.122184
-0.125056
-0.127989
-0.130802
-0.133422
-0.135856
-0.138131
-0.140259
-0.14223
-0.144028
-0.145634
-0.147033
-0.148205
-0.149132
-0.149783
-0.150135
-0.150143
-0.149779
-0.148983
-0.147719
-0.145909
-0.143514
-0.14044
-0.13667
-0.132098
-0.126738
-0.120481
-0.113405
-0.105408
-0.0966598
-0.0870515
-0.0768716
-0.0659655
-0.0547532
-0.0429543
-0.031136
-0.0187701
-0.00659051
-0.0988445
-0.104406
-0.108071
-0.110884
-0.113664
-0.11662
-0.119624
-0.122513
-0.125217
-0.127738
-0.130098
-0.132306
-0.134354
-0.136227
-0.137906
-0.139377
-0.140618
-0.141612
-0.142331
-0.142752
-0.142833
-0.142548
-0.14184
-0.140677
-0.138989
-0.136741
-0.133847
-0.130292
-0.125977
-0.12092
-0.115014
-0.108337
-0.100782
-0.0925145
-0.083414
-0.0737592
-0.0633812
-0.0526877
-0.0413913
-0.0300437
-0.018136
-0.00637296
-0.0906365
-0.0959891
-0.0996682
-0.102576
-0.105437
-0.108445
-0.111491
-0.114429
-0.117192
-0.119779
-0.122205
-0.124478
-0.12659
-0.128527
-0.13027
-0.131804
-0.133109
-0.134168
-0.134954
-0.135444
-0.1356
-0.135395
-0.134779
-0.133723
-0.132161
-0.130064
-0.127351
-0.12401
-0.11995
-0.11519
-0.109627
-0.103336
-0.0962098
-0.0884052
-0.079798
-0.0706505
-0.0607906
-0.0506035
-0.0398089
-0.0289295
-0.0174876
-0.0061477
-0.0828942
-0.0880164
-0.0916664
-0.0946237
-0.0975284
-0.100558
-0.103617
-0.106579
-0.109377
-0.112007
-0.114479
-0.116801
-0.118964
-0.120952
-0.12275
-0.12434
-0.125703
-0.126822
-0.127672
-0.12823
-0.128461
-0.12834
-0.127819
-0.126871
-0.125439
-0.123494
-0.120963
-0.117836
-0.114028
-0.109557
-0.104328
-0.0984104
-0.0916999
-0.0843413
-0.0762122
-0.0675552
-0.0582017
-0.0485095
-0.0382128
-0.0277993
-0.0168274
-0.00591694
-0.0756097
-0.0804869
-0.0840732
-0.087042
-0.0899568
-0.0929787
-0.0960275
-0.0989871
-0.101797
-0.104448
-0.106949
-0.109303
-0.111501
-0.113529
-0.115369
-0.117006
-0.118421
-0.119595
-0.120505
-0.12113
-0.121435
-0.121397
-0.120973
-0.120139
-0.118834
-0.117043
-0.114693
-0.111778
-0.108217
-0.10403
-0.0991252
-0.0935685
-0.0872595
-0.080331
-0.0726644
-0.0644817
-0.0556219
-0.0464137
-0.0366089
-0.0266588
-0.0161583
-0.0056824
-0.0687711
-0.0733947
-0.0768899
-0.079838
-0.0827343
-0.0857242
-0.0887389
-0.0916744
-0.094474
-0.0971265
-0.0996368
-0.102006
-0.104225
-0.10628
-0.108152
-0.109827
-0.111284
-0.112508
-0.113473
-0.114161
-0.114538
-0.114584
-0.114256
-0.113532
-0.112359
-0.11072
-0.108551
-0.105844
-0.102526
-0.0986143
-0.0940249
-0.0888169
-0.0828956
-0.0763815
-0.0691617
-0.0614381
-0.0530583
-0.0443233
-0.0350029
-0.0255128
-0.0154832
-0.00544548
-0.0623634
-0.0667298
-0.0701128
-0.0730141
-0.0758677
-0.0788044
-0.0817649
-0.0846566
-0.0874264
-0.0900614
-0.0925637
-0.0949324
-0.0971579
-0.099226
-0.101119
-0.102821
-0.104314
-0.105579
-0.106595
-0.107342
-0.107788
-0.107914
-0.107681
-0.107067
-0.106024
-0.104537
-0.102545
-0.100043
-0.0969615
-0.0933178
-0.0890335
-0.0841621
-0.0786146
-0.0725
-0.0657113
-0.0584317
-0.0505182
-0.0422453
-0.0334006
-0.0243662
-0.014805
-0.0052074
-0.0563693
-0.0604793
-0.0637345
-0.0665677
-0.0693589
-0.0722248
-0.0751145
-0.0779454
-0.0806681
-0.0832688
-0.085747
-0.0881004
-0.0903187
-0.0923878
-0.0942903
-0.0960101
-0.0975285
-0.0988289
-0.0998885
-0.100689
-0.1012
-0.101404
-0.101262
-0.100757
-0.0998418
-0.0985026
-0.0966845
-0.0943819
-0.0915312
-0.0881473
-0.0841578
-0.0796111
-0.0744236
-0.0686936
-0.0623205
-0.05547
-0.0480086
-0.0401863
-0.0318078
-0.0232235
-0.0141268
-0.00496928
-0.0507704
-0.0546278
-0.0577444
-0.0604933
-0.0632064
-0.0659874
-0.0687926
-0.0715483
-0.0742093
-0.076761
-0.079201
-0.0815254
-0.0837239
-0.0857822
-0.0876831
-0.0894107
-0.0909463
-0.0922737
-0.0933705
-0.0942187
-0.0947907
-0.0950672
-0.0950143
-0.0946133
-0.0938226
-0.0926281
-0.0909791
-0.0888702
-0.0862428
-0.0831101
-0.0794049
-0.0751707
-0.0703293
-0.0649693
-0.0589963
-0.0525601
-0.0455366
-0.038153
-0.0302301
-0.022089
-0.0134514
-0.00473216
-0.0455477
-0.049159
-0.0521301
-0.0547825
-0.0574055
-0.0600908
-0.0628007
-0.06547
-0.0680572
-0.0705474
-0.0729367
-0.0752204
-0.0773875
-0.0794241
-0.0813132
-0.0830391
-0.0845833
-0.0859297
-0.0870568
-0.0879468
-0.0885736
-0.0889184
-0.0889494
-0.0886487
-0.0879778
-0.0869233
-0.0854378
-0.0835162
-0.0811042
-0.0782136
-0.0747818
-0.0708478
-0.0663387
-0.0613341
-0.0557458
-0.0497092
-0.0431088
-0.0361515
-0.0286729
-0.0209671
-0.0127816
-0.00449702
-0.040682
-0.0440557
-0.0468778
-0.0494252
-0.0519492
-0.054531
-0.0571378
-0.059712
-0.0622157
-0.0646342
-0.0669626
-0.0691951
-0.0713208
-0.0733259
-0.0751939
-0.0769092
-0.0784537
-0.0798115
-0.0809618
-0.0818872
-0.0825628
-0.0829704
-0.08308
-0.0828746
-0.0823182
-0.081398
-0.0800698
-0.0783282
-0.0761232
-0.073465
-0.0702955
-0.0666495
-0.0624588
-0.0577951
-0.0525762
-0.0469241
-0.0407321
-0.0341881
-0.0271417
-0.019862
-0.01212
-0.00426483
-0.0361548
-0.0393007
-0.0419731
-0.0444099
-0.0468292
-0.0493021
-0.0518003
-0.0542731
-0.0566861
-0.059025
-0.0612841
-0.0634569
-0.0655326
-0.0674978
-0.0693364
-0.0710329
-0.07257
-0.0739319
-0.0750984
-0.0760527
-0.0767708
-0.0772354
-0.0774179
-0.0773019
-0.076854
-0.0760619
-0.0748839
-0.0733146
-0.0713076
-0.0688719
-0.0659533
-0.0625826
-0.0586965
-0.0543592
-0.0494942
-0.0442116
-0.0384129
-0.0322686
-0.0256415
-0.0187774
-0.0114693
-0.00403647
-0.031948
-0.034877
-0.0374011
-0.0397245
-0.0420358
-0.0443967
-0.0467833
-0.0491507
-0.0514679
-0.0537213
-0.0559045
-0.0580109
-0.0600296
-0.0619477
-0.0637496
-0.0654203
-0.0669429
-0.0683019
-0.069478
-0.0704547
-0.0712092
-0.0717246
-0.071974
-0.0719415
-0.0715957
-0.0709236
-0.0698884
-0.0684834
-0.0666654
-0.0644417
-0.0617622
-0.0586542
-0.0550587
-0.0510333
-0.0465066
-0.0415784
-0.0361574
-0.0303988
-0.0241773
-0.0177174
-0.0108319
-0.00381282
-0.0280445
-0.0307681
-0.0331473
-0.0353566
-0.0375585
-0.0398067
-0.0420803
-0.0443401
-0.0465586
-0.0487225
-0.0508253
-0.0528601
-0.0548163
-0.0566815
-0.0584406
-0.0600793
-0.0615811
-0.0629311
-0.0641105
-0.0651034
-0.0658881
-0.0664481
-0.066758
-0.0668027
-0.0665516
-0.0659922
-0.0650912
-0.0638423
-0.0622038
-0.0601817
-0.0577294
-0.0548713
-0.0515522
-0.0478239
-0.0436201
-0.0390308
-0.0339718
-0.0285843
-0.0227538
-0.0166855
-0.0102103
-0.00359471
-0.0244284
-0.0269585
-0.0291974
-0.0312937
-0.0333868
-0.0355228
-0.037684
-0.0398361
-0.0419543
-0.0440266
-0.046046
-0.0480057
-0.0498955
-0.0517033
-0.0534149
-0.0550164
-0.0564921
-0.0578274
-0.0590044
-0.0600078
-0.0608165
-0.0614151
-0.061779
-0.0618935
-0.0617301
-0.061277
-0.0605022
-0.0593995
-0.0579304
-0.0560991
-0.0538619
-0.0512406
-0.0481838
-0.0447378
-0.0408412
-0.0365751
-0.0318621
-0.0268302
-0.0213756
-0.0156853
-0.00960666
-0.00338294
-0.0210847
-0.0234335
-0.0255378
-0.0275238
-0.02951
-0.0315361
-0.0335867
-0.0356322
-0.0376505
-0.0396304
-0.0415651
-0.0434477
-0.0452684
-0.0470157
-0.0486761
-0.0502365
-0.0516816
-0.0529975
-0.054167
-0.0551754
-0.0560026
-0.0566336
-0.0570452
-0.057223
-0.0571405
-0.0567858
-0.0561288
-0.0551631
-0.0538528
-0.052201
-0.0501667
-0.047769
-0.0449602
-0.0417816
-0.0381762
-0.0342174
-0.0298339
-0.025142
-0.0200471
-0.0147201
-0.00902324
-0.00317828
-0.0179999
-0.0201795
-0.022156
-0.0240353
-0.0259178
-0.0278372
-0.0297804
-0.0317217
-0.0336418
-0.0355301
-0.0373801
-0.0391849
-0.0409351
-0.0426201
-0.0442269
-0.045743
-0.0471541
-0.0484466
-0.0496043
-0.0506129
-0.0514534
-0.0521111
-0.0525643
-0.052799
-0.05279
-0.0525259
-0.0519782
-0.0511401
-0.0499781
-0.0484945
-0.0466507
-0.0444634
-0.0418881
-0.0389618
-0.0356317
-0.0319639
-0.0278929
-0.0235245
-0.0187727
-0.0137932
-0.00846218
-0.00298147
-0.0151616
-0.0171842
-0.01904
-0.0208173
-0.0226003
-0.0244174
-0.0262574
-0.0280981
-0.0299226
-0.0317213
-0.0334877
-0.0352152
-0.036895
-0.0385168
-0.0400687
-0.0415386
-0.0429131
-0.0441792
-0.0453214
-0.0463261
-0.0471751
-0.0478545
-0.0483435
-0.0486285
-0.048686
-0.0485045
-0.0480575
-0.0473376
-0.0463135
-0.0449865
-0.0433208
-0.0413304
-0.0389741
-0.0362849
-0.0332137
-0.0298204
-0.0260446
-0.0219827
-0.0175564
-0.0129079
-0.00792555
-0.00279323
-0.012559
-0.0144367
-0.0161795
-0.0178602
-0.0195487
-0.0212685
-0.0230101
-0.0247547
-0.0264874
-0.0281994
-0.0298845
-0.0315364
-0.0331467
-0.0347057
-0.0362023
-0.0376251
-0.0389614
-0.0401988
-0.0413227
-0.0423199
-0.0431734
-0.0438697
-0.044389
-0.0447184
-0.0448353
-0.0447289
-0.0443738
-0.0437627
-0.042866
-0.0416843
-0.0401839
-0.038377
-0.036225
-0.0337573
-0.0309286
-0.0277929
-0.0242947
-0.0205215
-0.0164025
-0.0120673
-0.00741538
-0.00261427
-0.0101823
-0.011927
-0.0135649
-0.015155
-0.0167545
-0.0183828
-0.0200317
-0.0216854
-0.0233308
-0.02496
-0.0265672
-0.028146
-0.0296887
-0.0311863
-0.0326282
-0.0340039
-0.0353012
-0.0365086
-0.037612
-0.0385991
-0.0394535
-0.0401624
-0.0407071
-0.0410749
-0.0412448
-0.0412059
-0.0409343
-0.0404226
-0.0396428
-0.0385948
-0.0372471
-0.0356101
-0.0336476
-0.0313859
-0.0287829
-0.0258874
-0.0226485
-0.0191458
-0.015315
-0.0112745
-0.00693368
-0.0024453
-0.00802371
-0.00964713
-0.0111882
-0.0126942
-0.0142109
-0.0157539
-0.0173164
-0.0188849
-0.0204483
-0.0219994
-0.0235326
-0.0250418
-0.0265198
-0.0279581
-0.0293469
-0.0306762
-0.0319347
-0.0331114
-0.0341931
-0.0351678
-0.0360204
-0.0367382
-0.0373037
-0.0377047
-0.0379212
-0.0379427
-0.0377464
-0.0373246
-0.0366512
-0.0357255
-0.0345178
-0.0330369
-0.0312489
-0.0291774
-0.026783
-0.0241101
-0.0211117
-0.0178606
-0.0142981
-0.0105326
-0.00648248
-0.00228702
-0.00607661
-0.00759027
-0.00904305
-0.0104716
-0.011912
-0.0133765
-0.0148591
-0.0163489
-0.0178362
-0.0193145
-0.0207784
-0.0222222
-0.0236391
-0.0250211
-0.026359
-0.0276437
-0.0288643
-0.0300105
-0.0310698
-0.0320308
-0.0328792
-0.0336029
-0.0341852
-0.0346145
-0.0348716
-0.0349469
-0.034817
-0.034476
-0.0338989
-0.0330841
-0.0320037
-0.0306651
-0.0290366
-0.027139
-0.0249358
-0.0224673
-0.0196902
-0.0166709
-0.013356
-0.00984487
-0.00606384
-0.00214015
-0.00433586
-0.00575122
-0.00712426
-0.00848253
-0.00985356
-0.0112465
-0.0126564
-0.0140743
-0.0154918
-0.0169032
-0.0183032
-0.0196865
-0.0210466
-0.022376
-0.0236662
-0.0249086
-0.026093
-0.0272095
-0.0282465
-0.0291931
-0.0300356
-0.0307626
-0.0313583
-0.0318114
-0.0321036
-0.0322244
-0.0321537
-0.0318849
-0.0313942
-0.030679
-0.0297132
-0.0285029
-0.0270185
-0.0252784
-0.0232487
-0.0209659
-0.0183901
-0.0155821
-0.0124932
-0.00921466
-0.00567991
-0.00200544
-0.00279842
-0.00412679
-0.00542881
-0.00672416
-0.00803299
-0.00936179
-0.0107065
-0.0120597
-0.0134143
-0.0147652
-0.0161073
-0.0174356
-0.0187437
-0.0200249
-0.0212712
-0.0224743
-0.0236247
-0.0247133
-0.0257287
-0.0266607
-0.0274964
-0.0282247
-0.0288307
-0.0293032
-0.0296251
-0.0297862
-0.0297672
-0.0295614
-0.0291466
-0.0285196
-0.0276555
-0.0265595
-0.0252034
-0.0236041
-0.0217295
-0.0196131
-0.017218
-0.0145999
-0.0117144
-0.00864553
-0.00533294
-0.00188367
-0.00146261
-0.00271537
-0.00395528
-0.0051954
-0.00644954
-0.00772195
-0.00900927
-0.0103054
-0.0116045
-0.0129018
-0.0141925
-0.0154717
-0.0167335
-0.0179715
-0.0191782
-0.0203458
-0.0214654
-0.0225281
-0.0235233
-0.0244413
-0.0252696
-0.0259978
-0.0266114
-0.0270999
-0.0274468
-0.0276423
-0.0276678
-0.0275163
-0.027167
-0.0266166
-0.0258412
-0.0248449
-0.0236013
-0.0221254
-0.0203871
-0.0184171
-0.0161812
-0.0137306
-0.0110248