/*--------------------------------*- C++ -*----------------------------------*\
  =========                 |
  \\      /  F ield         | OpenFOAM: The Open Source CFD Toolbox
   \\    /   O peration     | Website:  https://openfoam.org
    \\  /    A nd           | Version:  7
     \\/     M anipulation  |
\*---------------------------------------------------------------------------*/
FoamFile
{
    version     2.0;
    format      ascii;
    class       surfaceScalarField;
    location    "30";
    object      phi;
}
// * * * * * * * * * * * * * * * * * * * * * * * * * * * * * * * * * * * * * //

dimensions      [0 3 -1 0 0 0 0];

internalField   nonuniform List<scalar> 
12578
(
-7.36033e-06
6.91215e-06
4.48177e-07
-2.62417e-05
1.78157e-05
1.06568e-06
-5.47715e-05
2.70322e-05
1.49754e-06
-9.11276e-05
3.45835e-05
1.77261e-06
-0.000133663
4.06055e-05
1.93016e-06
-0.000181046
4.53727e-05
2.01043e-06
-0.000232416
4.93254e-05
2.04404e-06
-0.000287583
5.31228e-05
2.04465e-06
-0.000347197
5.76075e-05
2.006e-06
6.38961e-05
1.89715e-06
-0.00041299
-7.27392e-06
1.41861e-05
-2.59431e-05
3.64849e-05
-5.41459e-05
5.52351e-05
-9.00566e-05
7.04942e-05
-0.000132008
8.25564e-05
-0.000178625
9.199e-05
-0.000228981
9.96813e-05
-0.0002828
0.000106942
-0.000340639
0.000115447
0.000127376
-0.000404119
-7.10124e-06
2.12873e-05
-2.53458e-05
5.47294e-05
-5.28945e-05
8.27838e-05
-8.79148e-05
0.000105514
-0.000128699
0.00012334
-0.000173789
0.000137081
-0.000222126
0.000148018
-0.00027326
0.000158076
-0.000327565
0.000169751
0.00018624
-0.000386429
-6.84922e-06
2.81365e-05
-2.44701e-05
7.23502e-05
-5.10542e-05
0.000109368
-8.47579e-05
0.000139218
-0.000123813
0.000162395
-0.000166641
0.000179909
-0.000211981
0.000193359
-0.00025912
0.000205215
-0.000308158
0.00021879
0.000238182
-0.000360101
-6.52769e-06
3.46642e-05
-2.33448e-05
8.91674e-05
-4.86773e-05
0.0001347
-8.06635e-05
0.000171204
-0.000117456
0.000199188
-0.000157317
0.000219769
-0.000198719
0.000234761
-0.000240586
0.000247082
-0.000282659
0.000260863
0.000280874
-0.00032535
-6.14876e-06
4.0813e-05
-2.20054e-05
0.000105024
-4.58268e-05
0.000158522
-7.57247e-05
0.000201102
-0.000109754
0.000233217
-0.000145978
0.000255993
-0.000182539
0.000271322
-0.000217889
0.000282432
-0.000251323
0.000294297
0.000311911
-0.00028236
-5.72605e-06
4.6539e-05
-2.04911e-05
0.000119789
-4.25723e-05
0.000180603
-7.00414e-05
0.000228571
-0.000100835
0.000264011
-0.000132786
0.000287944
-0.000163636
0.000302171
-0.000191241
0.000310037
-0.000214363
0.000317419
0.000328755
-0.000231207
-5.27382e-06
5.18129e-05
-1.88423e-05
0.000133358
-3.89835e-05
0.000200744
-6.371e-05
0.000253298
-9.08189e-05
0.00029112
-0.000117878
0.000315004
-0.000142161
0.000326454
-0.000160781
0.000328656
-0.000171861
0.000328499
0.000328679
-0.000171785
-4.80608e-06
5.66189e-05
-1.70981e-05
0.00014565
-3.51244e-05
0.000218771
-5.68121e-05
0.000274986
-7.97925e-05
0.0003141
-0.000101334
0.000336545
-0.000118174
0.000343295
-0.000126498
0.00033698
-0.000123658
0.000325659
0.000308854
-0.000103833
-4.33579e-06
6.09547e-05
-1.52926e-05
0.000156606
-3.10468e-05
0.000234525
-4.94029e-05
0.000293342
-6.7792e-05
0.000332489
-8.31411e-05
0.000351894
-9.15887e-05
0.000351742
-8.81292e-05
0.000333521
-6.90048e-05
0.000306535
0.000267764
-2.79155e-05
-3.87409e-06
6.48288e-05
-1.34529e-05
0.000166185
-2.67847e-05
0.000247857
-4.15001e-05
0.000308057
-5.47812e-05
0.00034577
-6.31634e-05
0.000360276
-6.21548e-05
0.000350734
-4.52925e-05
0.000316659
-4.03058e-06
0.000265273
0.000202867
6.08668e-05
-3.42968e-06
6.82585e-05
-1.15967e-05
0.000174352
-2.23491e-05
0.000258609
-3.30734e-05
0.000318781
-4.06303e-05
0.000353327
-4.10837e-05
0.00036073
-2.9277e-05
0.000338927
1.17747e-06
0.000286204
6.36456e-05
0.000202804
0.00010325
0.000163263
-3.0083e-06
7.12668e-05
-9.73015e-06
0.000181074
-1.77243e-05
0.000266603
-2.40382e-05
0.000325095
-2.51024e-05
0.000354391
-1.63883e-05
0.000352015
8.29559e-06
0.000314243
5.76184e-05
0.000236881
0.00014441
0.000116013
-3.36631e-05
0.000281323
-2.61222e-06
7.3879e-05
-7.84644e-06
0.000186308
-1.28654e-05
0.000271622
-1.42555e-05
0.000326485
-7.8652e-06
0.000348001
1.16038e-05
0.000332546
5.13616e-05
0.000274485
0.000121815
0.000166428
0.000239845
-2.01708e-06
-0.000212593
0.000418775
-2.2396e-06
-5.92366e-06
0.000189992
-7.69491e-06
0.000273393
-3.52653e-06
0.000322317
1.15118e-05
0.000332963
4.37547e-05
0.000300304
0.00010176
0.00021648
0.000197555
7.0633e-05
0.000353522
-0.000157984
-0.000437695
0.000578624
-3.92203e-06
0.000192031
-2.09529e-06
0.000271567
8.40424e-06
0.000311817
3.3552e-05
0.000307815
8.10421e-05
0.000252813
0.000161156
0.000136366
0.000287573
-5.57836e-05
0.000489221
-0.000359632
-0.000711036
0.000762562
-1.77781e-06
0.000192278
4.07728e-06
0.000265712
2.18605e-05
0.000294034
5.88631e-05
0.000270812
0.000124533
0.000187144
0.000231325
2.95726e-05
0.000394668
-0.000219127
0.000649552
-0.000614515
-0.00103124
0.000969758
5.99939e-07
1.10309e-05
0.000255281
3.72372e-05
0.000267828
8.81356e-05
0.000219914
0.000175336
9.99435e-05
0.000313914
-0.000109005
0.000521455
-0.000426667
0.000834779
-0.000927839
-0.00139246
0.001196
1.90166e-05
0.00023953
5.50067e-05
0.000231838
0.000122137
0.000152784
0.000234556
-1.2476e-05
0.000410241
-0.00028469
0.000669925
-0.000686352
0.00104217
-0.00130008
-0.00178733
0.00143704
2.83469e-05
7.57139e-05
0.000184471
0.000161686
6.68112e-05
0.000303192
-0.000153982
0.000520933
-0.000502431
0.000839422
-0.00100484
0.00126828
-0.00172894
-0.00222365
0.0017046
9.99565e-05
0.000207609
-4.08411e-05
0.000382012
-0.000328385
0.000645603
-0.000766021
0.00102369
-0.00138293
0.00150468
-0.00220993
-0.00293545
0.00221649
0.000260647
-0.000173148
0.000471411
-0.00053915
0.000783079
-0.00107769
0.00121518
-0.00181503
0.00174473
-0.00273949
-0.00363662
0.0024459
0.000321311
0.000571118
-0.000788957
0.000930857
-0.00143743
0.00140782
-0.002292
0.00197192
-0.00330358
-0.00430798
0.00264328
0.000679829
0.0010842
-0.00184179
0.0015942
-0.002802
0.00216874
-0.00387813
-0.0049349
0.00279566
0.00123643
0.00176373
-0.0033293
0.00232566
-0.00444005
-0.00550342
0.00289418
0.0019067
0.00243701
-0.00497036
-0.00600616
0.00293975
0.00250185
-0.00644237
0.00293807
0.00289651
0.00252417
0.0054595
0.00644612
0.00289739
0.00250313
0.00497395
0.00601008
0.00293917
0.0019081
0.00333218
0.00243848
0.00444357
0.00550746
0.0029411
0.00123758
0.00184351
0.00176521
0.00280455
0.00232731
0.00388147
0.00493898
0.0028958
0.000680578
0.000789666
0.00108533
0.00143876
0.00159572
0.00229415
0.00217055
0.00330664
0.00431199
0.00279754
0.00032176
0.000173228
0.000571854
0.000539572
0.000931971
0.00107865
0.00140938
0.00181674
0.00197385
0.00274217
0.00364043
0.00264541
0.000261121
4.07238e-05
0.00047216
0.000328533
0.000784195
0.000766611
0.00121675
0.00138419
0.00174675
0.00221218
0.00293893
0.00244824
0.000100279
-0.000184856
0.000208132
-6.71298e-05
0.000382805
0.00015386
0.000646749
0.000502667
0.00102531
0.00100563
0.00150678
0.00173071
0.00222678
0.00221893
2.85604e-05
-0.000239993
7.60918e-05
-0.000232387
0.000162277
-0.000153315
0.000304054
1.20835e-05
0.000522143
0.000284578
0.000841093
0.000686679
0.00127051
0.00130129
0.00179
0.00170729
1.92725e-05
-0.000255881
5.54462e-05
-0.000268561
0.000122805
-0.000220674
0.000235505
-0.000100616
0.000411537
0.000108545
0.000671662
0.000426554
0.00104447
0.000928476
0.00139457
0.0014399
7.37647e-07
-0.000192764
1.13284e-05
-0.000266472
3.77381e-05
-0.000294971
8.88822e-05
-0.000271818
0.000176375
-0.000188109
0.000315303
-3.0383e-05
0.000523262
0.000218595
0.000837143
0.000614595
0.0010327
0.00119901
-1.61313e-06
-0.000192636
4.4131e-06
-0.000272498
2.24164e-05
-0.000312974
5.968e-05
-0.000309081
0.000125652
-0.000254081
0.000232797
-0.000137528
0.000396543
5.48497e-05
0.000651958
0.00035918
0.000711801
0.00097286
-1.83059e-06
-7.63839e-05
-3.74066e-06
-0.000190726
-1.7268e-06
-0.000274512
9.00416e-06
-0.000323705
3.44234e-05
-0.000334501
8.22228e-05
-0.00030188
0.000162689
-0.000217994
0.000289496
-7.19573e-05
0.000491642
0.000157033
0.00043775
0.000765693
-2.18178e-06
-7.42021e-05
-5.72926e-06
-0.000187178
-7.30547e-06
-0.000272936
-2.89691e-06
-0.000328113
1.24172e-05
-0.000349815
4.49699e-05
-0.000334433
0.000103321
-0.000276346
0.000199493
-0.000168129
0.000355922
6.04747e-07
0.000211947
0.000581725
-2.55118e-06
-7.16509e-05
-7.64398e-06
-0.000182085
-1.24638e-05
-0.000268116
-1.36129e-05
-0.000326964
-6.94871e-06
-0.000356479
1.28241e-05
-0.000354206
5.29159e-05
-0.000316437
0.000123713
-0.000238926
0.000242189
-0.000117872
3.23488e-05
0.000421788
-2.94572e-06
-6.87052e-05
-9.52486e-06
-0.000175506
-1.73209e-05
-0.00026032
-2.33982e-05
-0.000320887
-2.41967e-05
-0.00035568
-1.51917e-05
-0.000363211
9.79986e-06
-0.000341429
5.94376e-05
-0.000288563
0.000146633
-0.000205067
-0.000105205
0.000284186
-3.36721e-06
-6.5338e-05
-1.13937e-05
-0.00016748
-2.19536e-05
-0.00024976
-3.2451e-05
-0.00031039
-3.97563e-05
-0.000348375
-3.99355e-05
-0.000363031
-2.78078e-05
-0.000353557
3.17792e-06
-0.000319549
6.56671e-05
-0.000267556
-0.000205472
0.000165934
-3.81325e-06
-6.15248e-05
-1.32568e-05
-0.000158036
-2.64057e-05
-0.000236611
-4.09087e-05
-0.000295887
-5.39578e-05
-0.000335326
-6.20902e-05
-0.000354899
-6.08123e-05
-0.000354835
-4.36969e-05
-0.000336665
-1.5806e-06
-0.000309672
-0.000270394
6.33415e-05
-4.27792e-06
-5.72468e-05
-1.51074e-05
-0.000147207
-3.06917e-05
-0.000221027
-4.88534e-05
-0.000277725
-6.70339e-05
-0.000317145
-8.21634e-05
-0.000339769
-9.03808e-05
-0.000346617
-8.66867e-05
-0.000340359
-6.7333e-05
-0.000329026
-0.000311829
-2.58979e-05
-4.75229e-06
-5.24945e-05
-1.69271e-05
-0.000135032
-3.47988e-05
-0.000203155
-5.63123e-05
-0.000256211
-7.91093e-05
-0.000294348
-0.000100462
-0.000318417
-0.000117109
-0.00032997
-0.00012524
-0.000332227
-0.000122204
-0.000332062
-0.000331982
-0.000102051
-5.22499e-06
-4.72696e-05
-1.8688e-05
-0.000121569
-3.86917e-05
-0.000183151
-6.32655e-05
-0.000231638
-9.02164e-05
-0.000267397
-0.000117117
-0.000291516
-0.000141241
-0.000305846
-0.000159705
-0.000313763
-0.000170631
-0.000321137
-0.00033229
-0.000170322
-5.68286e-06
-4.15867e-05
-2.03553e-05
-0.000106896
-4.23171e-05
-0.00016119
-6.96555e-05
-0.000204299
-0.000100316
-0.000236737
-0.000132137
-0.000259696
-0.00016286
-0.000275123
-0.000190344
-0.000286279
-0.000213352
-0.000298129
-0.000315595
-0.000230047
-6.11168e-06
-3.5475e-05
-2.18894e-05
-9.11186e-05
-4.561e-05
-0.000137469
-7.5399e-05
-0.00017451
-0.000109319
-0.000202816
-0.000145439
-0.000223576
-0.000181901
-0.000238661
-0.000217162
-0.000251018
-0.000250517
-0.000264774
-0.000284641
-0.000281472
-6.49706e-06
-2.8978e-05
-2.32494e-05
-7.43663e-05
-4.84998e-05
-0.000112219
-8.03984e-05
-0.000142612
-0.000117105
-0.00016611
-0.000156885
-0.000183797
-0.000198213
-0.000197333
-0.000240016
-0.000209215
-0.000282039
-0.000222751
-0.000241986
-0.000324694
-6.82525e-06
-2.21527e-05
-2.43956e-05
-5.67959e-05
-5.09164e-05
-8.5698e-05
-8.4553e-05
-0.000108975
-0.000123543
-0.00012712
-0.000166311
-0.000141029
-0.000211598
-0.000152045
-0.000258694
-0.00016212
-0.000307704
-0.000173741
-0.000190052
-0.000359639
-7.08406e-06
-1.50686e-05
-2.52925e-05
-3.85874e-05
-5.27962e-05
-5.81943e-05
-8.77693e-05
-7.4002e-05
-0.000128508
-8.63812e-05
-0.000173558
-9.59792e-05
-0.000221859
-0.000103743
-0.000272967
-0.000111012
-0.000327257
-0.000119451
-0.000131182
-0.000386126
-7.26359e-06
-7.80506e-06
-2.59111e-05
-1.99399e-05
-5.40871e-05
-3.00183e-05
-8.99697e-05
-3.81194e-05
-0.000131894
-4.4457e-05
-0.000178487
-4.93858e-05
-0.000228823
-5.3407e-05
-0.000282628
-5.72076e-05
-0.000340461
-6.16178e-05
-6.76939e-05
-0.000403949
-7.35688e-06
-2.62311e-05
-5.47519e-05
-9.10987e-05
-0.000133625
-0.000181001
-0.000232364
-0.000287527
-0.000347139
-0.000412935
-0.000444347
3.0092e-05
1.26519e-06
-0.000476089
3.07156e-05
1.02617e-06
-0.000507856
3.10777e-05
6.89157e-07
-0.000539569
3.14874e-05
2.25886e-07
-0.000571177
3.2005e-05
-3.96857e-07
-0.000602645
3.26847e-05
-1.21702e-06
-0.000633926
3.3558e-05
-2.27661e-06
-0.000664962
3.46564e-05
-3.62071e-06
-0.000695685
3.60185e-05
-5.29596e-06
-0.000726026
3.7688e-05
-7.34685e-06
-0.00075592
3.97063e-05
-9.81179e-06
-0.000785308
4.21051e-05
-1.27175e-05
-0.000814131
4.48959e-05
-1.60723e-05
-0.000842333
4.80586e-05
-1.98567e-05
-0.00086985
5.15295e-05
-2.40132e-05
-0.000896602
5.51855e-05
-2.84327e-05
-0.000922498
5.88231e-05
-3.29272e-05
-0.000947407
6.21599e-05
-3.72508e-05
-0.000971157
6.48107e-05
-4.10609e-05
-0.000993513
6.62914e-05
-4.39357e-05
-0.0010142
6.59722e-05
-4.52824e-05
-0.00103285
6.32257e-05
-4.45745e-05
-0.00104901
5.73516e-05
-4.11932e-05
-0.00106213
4.76666e-05
-3.45455e-05
-0.00107156
3.35252e-05
-2.40992e-05
-0.0010765
1.44723e-05
-9.52988e-06
-0.00107618
-9.51495e-06
9.1928e-06
-0.00106972
-3.79911e-05
3.15331e-05
-0.00105587
-7.08937e-05
5.70384e-05
-0.00103367
-0.000106335
8.41398e-05
-0.00100154
-0.000143163
0.000111033
-0.000958966
-0.000177388
0.000134813
-0.000903775
-0.000208298
0.000153107
-0.000836667
-0.000229417
0.000162309
-0.000754357
-0.00024224
0.00015993
-0.000660112
-0.000238452
0.000144206
-0.000547931
-0.00022493
0.000112749
-0.00042777
-0.000191768
7.16082e-05
-0.000281842
-0.000155269
9.33998e-06
-0.000140897
-0.000104705
-3.62394e-05
4.71983e-05
-7.2421e-05
-0.000115674
-5.97584e-05
-0.000126816
-0.000434859
6.08321e-05
-0.000466011
6.18672e-05
-0.000497224
6.22903e-05
-0.000528413
6.26768e-05
-0.000559512
6.31041e-05
-0.000590474
6.36464e-05
-0.000621244
6.43279e-05
-0.000651757
6.51694e-05
-0.000681942
6.62034e-05
-0.000711728
6.74743e-05
-0.000741049
6.90277e-05
-0.000769845
7.09007e-05
-0.000798057
7.31083e-05
-0.000825629
7.56304e-05
-0.000852497
7.83971e-05
-0.000878584
8.12723e-05
-0.000903793
8.4033e-05
-0.000927998
8.63644e-05
-0.000951025
8.78376e-05
-0.000972643
8.791e-05
-0.000992574
8.59024e-05
-0.00101045
8.10985e-05
-0.00102581
7.27122e-05
-0.00103811
5.99732e-05
-0.00104671
4.21194e-05
-0.00105083
1.85978e-05
-0.00104969
-1.0658e-05
-0.00104247
-4.52108e-05
-0.00102792
-8.54395e-05
-0.00100516
-0.000129104
-0.000972612
-0.000175706
-0.000929825
-0.000220175
-0.000874672
-0.000263451
-0.000807854
-0.000296235
-0.00072611
-0.000323983
-0.000632668
-0.000331894
-0.000521409
-0.000336189
-0.000402327
-0.00031085
-0.000257262
-0.000300334
-0.000117274
-0.000244693
6.93409e-05
-0.000259036
-0.000246469
-0.000415969
9.03727e-05
-0.000445977
9.18749e-05
-0.000476121
9.24347e-05
-0.000506309
9.2864e-05
-0.000536442
9.32375e-05
-0.000566451
9.36557e-05
-0.000596266
9.41424e-05
-0.000625809
9.47126e-05
-0.000655002
9.53964e-05
-0.00068377
9.6242e-05
-0.000712043
9.73011e-05
-0.000739759
9.86171e-05
-0.00076686
0.000100209
-0.000793287
0.000102057
-0.000818975
0.000104085
-0.000843848
0.000106145
-0.000867807
0.000107992
-0.000890724
0.000109281
-0.000912426
0.00010954
-0.000932686
0.000108169
-0.000951216
0.000104433
-0.000967653
9.7535e-05
-0.000981541
8.66006e-05
-0.000992344
7.07763e-05
-0.000999409
4.91835e-05
-0.001002
2.11867e-05
-0.000999351
-1.33049e-05
-0.000990665
-5.38963e-05
-0.000974736
-0.000101368
-0.000950723
-0.000153117
-0.000917125
-0.000209305
-0.000873529
-0.000263771
-0.000817874
-0.000319105
-0.000750875
-0.000363235
-0.000669311
-0.000405547
-0.000576413
-0.000424792
-0.000465856
-0.000446746
-0.000347874
-0.000428832
-0.000203715
-0.000444493
-6.55293e-05
-0.000382878
0.000118917
-0.000443483
-0.000432588
-0.000387903
0.000118175
-0.000416248
0.00012022
-0.00044484
0.000121026
-0.000473573
0.000121598
-0.000502309
0.000121973
-0.000530944
0.00012229
-0.000559382
0.000122581
-0.000587533
0.000122863
-0.000615304
0.000123168
-0.000642616
0.000123554
-0.000669394
0.000124079
-0.000695574
0.000124797
-0.000721095
0.00012573
-0.000745896
0.000126858
-0.000769911
0.0001281
-0.000793061
0.000129295
-0.000815247
0.000130178
-0.000836337
0.000130372
-0.000856161
0.000129363
-0.00087449
0.000126498
-0.000891036
0.000120979
-0.000905437
0.000111936
-0.00091724
9.84042e-05
-0.000925916
7.94519e-05
-0.000930818
5.40861e-05
-0.00093123
2.15983e-05
-0.000926456
-1.80786e-05
-0.000915677
-6.46755e-05
-0.000897745
-0.0001193
-0.000871885
-0.000178977
-0.000836656
-0.000244534
-0.000791708
-0.000308718
-0.000735061
-0.000375753
-0.000667446
-0.00043085
-0.000585696
-0.000487298
-0.0004931
-0.000517388
-0.000383038
-0.000556807
-0.000266156
-0.000545714
-0.000122788
-0.000587862
1.18263e-05
-0.000517492
0.000194747
-0.000626404
-0.000616979
-0.000350946
0.000143771
-0.000377163
0.000146436
-0.000403761
0.000147624
-0.00043063
0.000148466
-0.000457574
0.000148918
-0.000484446
0.000149163
-0.000511124
0.000149258
-0.000537492
0.000149232
-0.00056345
0.000149125
-0.000588905
0.000149009
-0.000613782
0.000148956
-0.000638011
0.000149026
-0.000661528
0.000149248
-0.000684272
0.000149602
-0.000706173
0.000150001
-0.000727148
0.00015027
-0.000747096
0.000150126
-0.000765885
0.000149161
-0.000783342
0.00014682
-0.000799241
0.000142397
-0.000813292
0.000135031
-0.000825137
0.00012378
-0.000834326
0.000107594
-0.000840338
8.54636e-05
-0.000842536
5.62843e-05
-0.000840234
1.92962e-05
-0.0008328
-2.55127e-05
-0.000819397
-7.80784e-05
-0.00079894
-0.000139757
-0.000770726
-0.000207191
-0.000733384
-0.000281876
-0.000686626
-0.000355476
-0.00062857
-0.000433808
-0.000559972
-0.000499448
-0.000477718
-0.000569552
-0.000385218
-0.000609888
-0.000275484
-0.000666541
-0.000159744
-0.000661454
-1.56365e-05
-0.000731969
0.000119452
-0.000652581
0.00029454
-0.000801492
-0.000798517
-0.000305379
0.000166789
-0.000329077
0.000170134
-0.000353305
0.000171853
-0.000377953
0.000173114
-0.000402761
0.000173726
-0.000427531
0.000173933
-0.000452105
0.000173832
-0.000476349
0.000173475
-0.000500143
0.00017292
-0.000523391
0.000172257
-0.000546009
0.000171574
-0.000567927
0.000170943
-0.000589077
0.000170398
-0.000609394
0.000169919
-0.000628804
0.000169411
-0.000647222
0.000168688
-0.000664543
0.000167447
-0.000680634
0.000165251
-0.000695319
0.000161505
-0.000708374
0.000155452
-0.00071951
0.000146167
-0.000728371
0.000132642
-0.000734516
0.000113738
-0.00073743
8.83773e-05
-0.000736492
5.53471e-05
-0.000731042
1.3846e-05
-0.000720536
-3.60192e-05
-0.000704093
-9.45214e-05
-0.000680706
-0.000163144
-0.000649745
-0.000238153
-0.000609918
-0.000321703
-0.000560994
-0.0004044
-0.000501212
-0.00049359
-0.000431348
-0.000569312
-0.000348342
-0.000652558
-0.000255781
-0.000702449
-0.000146245
-0.000776077
-3.22393e-05
-0.00077546
0.000109001
-0.00087321
0.000246074
-0.000789653
0.00041526
-0.000970678
-0.000976258
-0.000251395
0.000186978
-0.000272289
0.000191028
-0.000293857
0.000193421
-0.000316
0.000195257
-0.000338392
0.000196118
-0.000360778
0.000196319
-0.000382962
0.000196016
-0.000404789
0.000195303
-0.000426127
0.000194258
-0.000446871
0.000193001
-0.000466935
0.000191638
-0.000486244
0.000190252
-0.00050473
0.000188884
-0.000522322
0.00018751
-0.000538943
0.000186032
-0.000554502
0.000184248
-0.000568892
0.000181837
-0.000581974
0.000178333
-0.000593574
0.000173105
-0.000603468
0.000165346
-0.000611368
0.000154067
-0.000616925
0.000138199
-0.000619701
0.000116515
-0.000619189
8.78655e-05
-0.000614835
5.09922e-05
-0.000605889
4.90072e-06
-0.000592036
-4.98727e-05
-0.00057225
-0.000114307
-0.000545654
-0.000189739
-0.000511674
-0.000272133
-0.000469114
-0.000364263
-0.000417784
-0.000455731
-0.000356064
-0.00055531
-0.000284748
-0.000640627
-0.000200828
-0.000736479
-0.000108104
-0.000795172
2.07837e-06
-0.00088626
0.000114866
-0.000888248
0.000252943
-0.00101129
0.00039003
-0.00092674
0.000553577
-0.00113423
-0.00114945
-0.000189013
0.000204206
-0.000206952
0.000208968
-0.000225679
0.000212147
-0.000245126
0.000214704
-0.000264902
0.000215894
-0.000284691
0.000216107
-0.000304262
0.000215588
-0.000323446
0.000214486
-0.000342097
0.000212909
-0.000360107
0.000211011
-0.000377388
0.00020892
-0.000393865
0.000206729
-0.000409466
0.000204485
-0.000424117
0.000202161
-0.000437734
0.000199649
-0.000450223
0.000196737
-0.000461469
0.000193082
-0.00047133
0.000188195
-0.000479632
0.000181406
-0.00048615
0.000171864
-0.0004906
0.000158517
-0.000492639
0.000140237
-0.000491835
0.000115711
-0.000487696
8.37263e-05
-0.0004796
4.28967e-05
-0.000467231
-7.46853e-06
-0.00044972
-6.73835e-05
-0.000426422
-0.000137606
-0.000396463
-0.000219698
-0.000359317
-0.000309279
-0.000313901
-0.000409679
-0.000260038
-0.000509594
-0.000196281
-0.000619067
-0.000123417
-0.000713491
-3.85187e-05
-0.000821377
5.43703e-05
-0.000888061
0.000163508
-0.000995398
0.000276375
-0.00100112
0.000411868
-0.00114678
0.000548082
-0.00106295
0.00070608
-0.00129222
-0.00131754
-0.000117958
0.000218331
-0.000132938
0.000223948
-0.000148812
0.000228021
-0.000165489
0.000231381
-0.00018255
0.000232955
-0.000199615
0.000233172
-0.000216426
0.000232399
-0.000232808
0.000230868
-0.000248614
0.000228714
-0.000263734
0.000226131
-0.000278083
0.00022327
-0.000291587
0.000220233
-0.000304169
0.000217067
-0.000315752
0.000213743
-0.000326245
0.000210143
-0.000335548
0.000206039
-0.000343537
0.000201072
-0.000350068
0.000194726
-0.000354962
0.0001863
-0.000357998
0.0001749
-0.000358891
0.00015941
-0.000357307
0.000138653
-0.000352826
0.00011123
-0.00034496
7.58609e-05
-0.000333134
3.107e-05
-0.00031712
-2.34819e-05
-0.00029597
-8.85338e-05
-0.000269102
-0.000164473
-0.000235748
-0.000253052
-0.000195404
-0.000349623
-0.000147126
-0.000457958
-9.06933e-05
-0.000566027
-2.49351e-05
-0.000684825
4.94917e-05
-0.000787917
0.000135321
-0.000907207
0.000228346
-0.000981086
0.000337163
-0.00110421
0.000449073
-0.00111302
0.000582087
-0.00127979
0.000716915
-0.00119778
0.000869458
-0.00144477
-0.00148013
-3.68608e-05
0.000227276
-4.97237e-05
0.000236811
-6.29897e-05
0.000241287
-7.69582e-05
0.000245349
-9.13207e-05
0.000247317
-0.000105637
0.000247489
-0.000119624
0.000246386
-0.000133133
0.000244377
-0.000146018
0.000241599
-0.000158179
0.000238292
-0.000169537
0.000234628
-0.000180018
0.000230714
-0.000189545
0.000226594
-0.000198033
0.000222231
-0.000205385
0.000217495
-0.00021149
0.000212144
-0.000216217
0.000205799
-0.000219416
0.000197925
-0.000220903
0.000187788
-0.000220458
0.000174455
-0.000217797
0.000156749
-0.000212596
0.000133452
-0.000204443
0.000103076
-0.000192899
6.4317e-05
-0.000177353
1.55243e-05
-0.00015775
-4.30849e-05
-0.000132987
-0.000113297
-0.000102608
-0.000194853
-6.59383e-05
-0.000289721
-2.23617e-05
-0.0003932
2.85478e-05
-0.000508867
8.73935e-05
-0.000624872
0.000155091
-0.000752522
0.000230836
-0.000863663
0.000317639
-0.00099401
0.00041072
-0.00107417
0.000519096
-0.00121259
0.000629915
-0.00122384
0.000760353
-0.00141023
0.000893411
-0.00133084
0.00104063
-0.00159198
-0.00163698
5.41211e-05
0.000234022
4.33922e-05
0.00024754
3.24707e-05
0.000252209
2.09941e-05
0.000256826
9.20377e-06
0.000259107
-2.39588e-06
0.000259089
-1.36675e-05
0.000257658
-2.4344e-05
0.000255054
-3.43388e-05
0.000251594
-4.3577e-05
0.000247531
-5.19915e-05
0.000243042
-5.95119e-05
0.000238234
-6.60582e-05
0.00023314
-7.15379e-05
0.000227711
-7.58441e-05
0.000221801
-7.88542e-05
0.000215154
-8.04276e-05
0.000207373
-8.0404e-05
0.000197901
-7.85966e-05
0.00018598
-7.47822e-05
0.00017064
-6.86793e-05
0.000150646
-5.99685e-05
0.000124742
-4.82431e-05
9.13506e-05
-3.30932e-05
4.91671e-05
-1.39713e-05
-3.59758e-06
9.19099e-06
-6.62472e-05
3.72217e-05
-0.000141327
7.08844e-05
-0.000228516
0.000110649
-0.000329486
0.000157014
-0.000439565
0.000210624
-0.000562478
0.000271674
-0.000685922
0.000341179
-0.000822028
0.000418121
-0.000940604
0.000505663
-0.00108155
0.000598672
-0.00116718
0.000706412
-0.00132033
0.000816054
-0.00133349
0.000943772
-0.00153795
0.00107474
-0.00146181
0.00121681
-0.00173405
-0.00178798
0.000156947
0.000240338
0.000147875
0.000256612
0.000138741
0.000261342
0.000129243
0.000266324
0.000119685
0.000268666
0.000110517
0.000268256
0.00010193
0.000266245
9.3979e-05
0.000263005
8.67415e-05
0.000258831
8.02727e-05
0.000253999
7.46285e-05
0.000248686
6.98777e-05
0.000242985
6.61062e-05
0.000236912
6.34173e-05
0.0002304
6.19309e-05
0.000223288
6.17832e-05
0.000215302
6.31276e-05
0.000206028
6.61343e-05
0.000194894
7.09954e-05
0.000181119
7.79356e-05
0.0001637
8.7235e-05
0.000141347
9.92038e-05
0.000112773
0.000114241
7.63136e-05
0.000132773
3.06348e-05
0.000154838
-2.56621e-05
0.000181274
-9.26834e-05
0.000212661
-0.000172714
0.000249411
-0.000265267
0.000292071
-0.000372145
0.000341073
-0.000488567
0.000396991
-0.000618396
0.000459978
-0.000748908
0.000530991
-0.000893041
0.000608882
-0.0010185
0.000696917
-0.00116959
0.000789701
-0.00125996
0.00089656
-0.00142719
0.00100495
-0.00144187
0.00112981
-0.00166281
0.00125843
-0.00159043
0.00139556
-0.00187119
-0.00193312
0.00027483
0.000246831
0.000265818
0.000265624
0.000257503
0.000269658
0.000249381
0.000274445
0.000241635
0.000276412
0.000234613
0.000275278
0.000228349
0.000272509
0.000222817
0.000268537
0.000218027
0.000263621
0.000214002
0.000258024
0.000210786
0.000251903
0.000208449
0.000245322
0.000207086
0.000238274
0.000206815
0.000230671
0.000207773
0.00022233
0.000210111
0.000212964
0.000213997
0.000202141
0.000219615
0.000189276
0.000227164
0.000173571
0.000236871
0.000153993
0.000249019
0.000129199
0.000263923
9.78688e-05
0.000281884
5.83529e-05
0.000303412
9.1065e-06
0.000328387
-5.06375e-05
0.000357733
-0.000122029
0.000391949
-0.000206931
0.0004314
-0.000304717
0.000476554
-0.000417299
0.000527828
-0.00053984
0.000585681
-0.00067625
0.000650252
-0.000813479
0.000722438
-0.000965227
0.00080098
-0.00109704
0.000889211
-0.00125782
0.000981597
-0.00135235
0.00108731
-0.0015329
0.00119437
-0.00154894
0.00131625
-0.00178468
0.0014423
-0.00171648
0.00157476
-0.00200365
-0.00207246
0.000409869
0.000255737
0.000399419
0.000276073
0.000390861
0.000278216
0.00038337
0.000281937
0.000376891
0.000282891
0.000371547
0.000280622
0.000367156
0.0002769
0.000363564
0.000272129
0.000360715
0.00026647
0.000358604
0.000260136
0.000357268
0.000253238
0.000356789
0.000245801
0.00035728
0.000237784
0.000358876
0.000229075
0.000361733
0.000219473
0.000366022
0.000208674
0.000371928
0.000196236
0.000379645
0.000181559
0.00038938
0.000163836
0.000401365
0.000142009
0.000415884
0.00011468
0.000433256
8.04967e-05
0.000453813
3.7796e-05
0.000477598
-1.46788e-05
0.000505162
-7.82012e-05
0.000536986
-0.000153853
0.000573571
-0.000243515
0.000615273
-0.00034642
0.000662468
-0.000464494
0.00071557
-0.000592942
0.000774928
-0.000735608
0.000840671
-0.000879222
0.000913646
-0.0010382
0.000992509
-0.0011759
0.00108061
-0.00134591
0.00117241
-0.00144415
0.0012767
-0.00163719
0.00138237
-0.00165461
0.0015012
-0.00190351
0.00162452
-0.0018398
0.00175259
-0.00213173
-0.00220618
0.00056438
0.000269981
0.000551006
0.000289448
0.000541283
0.000287939
0.000533725
0.000289495
0.000527926
0.00028869
0.000523656
0.000284893
0.00052047
0.000280086
0.000518085
0.000274514
0.000516396
0.000268159
0.000515393
0.000261139
0.00051513
0.000253501
0.000515711
0.000245221
0.000517271
0.000236224
0.000519972
0.000226374
0.00052399
0.000215454
0.000529517
0.000203148
0.000536751
0.000189002
0.0005459
0.00017241
0.000557175
0.00015256
0.000570811
0.000128373
0.000587099
9.83922e-05
0.000606332
6.12639e-05
0.000628825
1.53029e-05
0.000654473
-4.03275e-05
0.000683978
-0.000107706
0.000717744
-0.00018762
0.000756155
-0.000281927
0.000799578
-0.000389842
0.000848291
-0.000513207
0.000902713
-0.000647365
0.000963095
-0.00079599
0.00102956
-0.000945682
0.0011029
-0.00111155
0.00118174
-0.00125474
0.00126936
-0.00143353
0.00136041
-0.00153521
0.00146303
-0.00173981
0.00156725
-0.00175882
0.00168299
-0.00201926
0.00180349
-0.00196029
0.00192748
-0.00225572
-0.00233448
0.000740024
0.000292518
0.0007229
0.000306573
0.000711642
0.000299196
0.000703563
0.000297573
0.000697832
0.000294421
0.000693812
0.000288913
0.000690832
0.000283066
0.000688552
0.000276795
0.000686875
0.000269835
0.000685831
0.000262183
0.000685515
0.000253816
0.000686069
0.000244667
0.00068766
0.000234633
0.000690473
0.00022356
0.000694709
0.000211219
0.000700571
0.000197286
0.000708272
0.000181301
0.000718029
0.000162653
0.000730054
0.000140535
0.000744581
0.000113846
0.000761907
8.10655e-05
0.000782312
4.08593e-05
0.000805913
-8.298e-06
0.000832846
-6.72602e-05
0.000863664
-0.000138524
0.00089873
-0.000222686
0.000938344
-0.000321541
0.000982884
-0.000434381
0.00103253
-0.000562856
0.00108772
-0.00070255
0.00114861
-0.00085688
0.00121531
-0.00101238
0.00128861
-0.00118485
0.00136709
-0.00133322
0.0014539
-0.00152034
0.00154403
-0.00162535
0.00164478
-0.00184056
0.0017475
-0.00186154
0.0018602
-0.00213196
0.00197784
-0.00207793
0.0020981
-0.00237598
-0.00245764
0.000937586
0.000324691
0.000917669
0.00032649
0.000905513
0.000311352
0.000896741
0.000306346
0.000890271
0.00030089
0.000885225
0.00029396
0.000880924
0.000287366
0.000877129
0.000280589
0.000873849
0.000273115
0.000871202
0.00026483
0.000869353
0.000255665
0.000868489
0.000245532
0.000868807
0.000234315
0.000870514
0.000221854
0.00087382
0.000207913
0.000878939
0.000192167
0.000886087
0.000174152
0.000895485
0.000153256
0.000907339
0.00012868
0.000921877
9.93082e-05
0.000939403
6.354e-05
0.00096022
2.0042e-05
0.000984026
-3.21035e-05
0.00101152
-9.47586e-05
0.00104291
-0.000169915
0.00107857
-0.000258337
0.0011187
-0.000361673
0.0011637
-0.000479381
0.00121366
-0.000612819
0.00126903
-0.000757916
0.0013299
-0.000917751
0.00139637
-0.00107886
0.0014692
-0.00125768
0.00154702
-0.00141103
0.00163273
-0.00160606
0.00172183
-0.00171444
0.00182058
-0.00193931
0.00192181
-0.00196277
0.00203155
-0.0022417
0.00214641
-0.00219278
0.00226327
-0.00249284
-0.00257601
0.00115727
0.00036342
0.00113902
0.000344738
0.00112783
0.000322536
0.00111807
0.000316112
0.00110932
0.00030964
0.00110108
0.0003022
0.00109312
0.00029532
0.00108553
0.000288184
0.00107849
0.000280156
0.00107224
0.000271074
0.00106703
0.000260877
0.00106307
0.000249492
0.00106058
0.000236811
0.00105975
0.000222677
0.00106081
0.000206855
0.00106396
0.000189019
0.00106941
0.000168706
0.00107736
0.000145301
0.00108802