/*--------------------------------*- C++ -*----------------------------------*\
  =========                 |
  \\      /  F ield         | OpenFOAM: The Open Source CFD Toolbox
   \\    /   O peration     | Website:  https://openfoam.org
    \\  /    A nd           | Version:  7
     \\/     M anipulation  |
\*---------------------------------------------------------------------------*/
FoamFile
{
    version     2.0;
    format      ascii;
    class       volVectorField;
    location    "30";
    object      U;
}
// * * * * * * * * * * * * * * * * * * * * * * * * * * * * * * * * * * * * * //

dimensions      [0 1 -1 0 0 0 0];

internalField   nonuniform List<vector> 
6386
(
(-0.00120528 0.000916042 2.90174e-21)
(-0.00671149 0.00212262 1.01843e-20)
(-0.0170307 0.00284744 -3.78775e-21)
(-0.0292615 0.00321117 2.67818e-21)
(-0.0423286 0.00330137 -1.95019e-20)
(-0.0553766 0.00320434 -8.37769e-21)
(-0.0678222 0.00300384 -1.78434e-21)
(-0.0794172 0.00278096 -2.62373e-20)
(-0.0901818 0.00260799 3.41396e-21)
(-0.100339 0.00255419 1.6092e-20)
(-0.00135101 0.00299185 -2.65609e-20)
(-0.00701022 0.00690538 -5.45819e-21)
(-0.0173535 0.00924251 1.6238e-20)
(-0.0295209 0.0104003 -6.08172e-20)
(-0.0424525 0.0106751 -7.55744e-21)
(-0.0553033 0.0103528 1.11796e-20)
(-0.0674938 0.00970189 4.00683e-21)
(-0.0787775 0.008974 7.27119e-20)
(-0.0891719 0.0083878 -5.2571e-20)
(-0.0988637 0.0081465 8.67617e-21)
(-0.00164332 0.00501809 5.10519e-20)
(-0.00760948 0.0115821 -6.93417e-21)
(-0.018001 0.0155026 2.7828e-20)
(-0.0300405 0.0174404 6.23326e-20)
(-0.0426998 0.0178935 1.27474e-19)
(-0.0551544 0.0173409 -9.21205e-20)
(-0.0668328 0.016232 2.41091e-22)
(-0.0774917 0.0149878 -7.08008e-20)
(-0.0871444 0.0139775 8.99863e-20)
(-0.0958989 0.0135448 -8.53949e-20)
(-0.0020751 0.00696311 5.78013e-21)
(-0.00849643 0.0160842 -4.1695e-21)
(-0.0189604 0.0215399 3.1239e-20)
(-0.0308094 0.0242342 -4.48873e-20)
(-0.0430617 0.0248545 -3.4038e-20)
(-0.0549228 0.0240636 1.62079e-19)
(-0.0658322 0.0224842 -4.9695e-20)
(-0.0755505 0.0207046 -1.42732e-19)
(-0.0840889 0.0192522 -4.69757e-20)
(-0.0914167 0.0186209 6.33289e-20)
(-0.00263615 0.00879832 9.76799e-21)
(-0.00965228 0.0203484 4.06873e-20)
(-0.0202125 0.0272715 -8.67753e-20)
(-0.0318102 0.0306884 1.01567e-19)
(-0.0435228 0.0314601 6.69742e-20)
(-0.0545944 0.0304194 -2.49713e-19)
(-0.0644774 0.0283518 2.11934e-19)
(-0.072934 0.0260098 1.27404e-19)
(-0.079983 0.024089 4.35086e-20)
(-0.0853625 0.0232473 -1.40321e-20)
(-0.00331371 0.0104992 -7.08331e-20)
(-0.0110529 0.0243181 -3.17443e-20)
(-0.0217315 0.0326214 2.72817e-20)
(-0.0330183 0.0367161 -2.25368e-19)
(-0.0440596 0.0376178 1.09452e-19)
(-0.0541456 0.0363122 -2.78243e-20)
(-0.0627411 0.0337336 1.55027e-21)
(-0.0696047 0.0307936 2.44698e-20)
(-0.0747845 0.0283687 -5.44103e-20)
(-0.0776385 0.0272972 -3.03502e-20)
(-0.0040932 0.0120459 1.558e-19)
(-0.0126696 0.027945 -1.75984e-20)
(-0.023485 0.037522 1.07276e-19)
(-0.0344 0.0422377 3.66745e-20)
(-0.0446371 0.0432417 -3.14791e-20)
(-0.0535376 0.0416528 -2.48912e-20)
(-0.060577 0.0385362 -1.72484e-20)
(-0.0654969 0.0349538 -4.76064e-20)
(-0.0684206 0.0319778 2.58835e-20)
(-0.0680815 0.0306447 2.00444e-19)
(-0.00495885 0.0134236 -1.65653e-19)
(-0.0144697 0.0311893 1.06763e-19)
(-0.0254339 0.0419145 -1.96551e-19)
(-0.0359114 0.047182 2.29664e-20)
(-0.045205 0.0482543 5.53958e-20)
(-0.052711 0.0463612 2.03419e-19)
(-0.0579101 0.0426767 -9.44306e-20)
(-0.0605028 0.0384011 1.5826e-19)
(-0.0607735 0.0348137 -1.07048e-19)
(-0.0564348 0.0331725 -1.38351e-19)
(-0.00589451 0.0146229 1.37013e-19)
(-0.0164175 0.0340205 -6.5605e-20)
(-0.0275313 0.0457497 -1.61209e-19)
(-0.0374954 0.0514867 1.48217e-20)
(-0.0456932 0.052587 -2.766e-19)
(-0.0515767 0.0503681 -1.66795e-20)
(-0.0546247 0.0460864 1.22525e-20)
(-0.0544522 0.0410637 -7.92462e-20)
(-0.0516576 0.0367889 1.83401e-19)
(-0.0423363 0.0348177 7.32295e-20)
(-0.00688422 0.0156389 -1.06942e-19)
(-0.0184746 0.0364166 -1.64404e-19)
(-0.0297226 0.0489876 4.15755e-19)
(-0.0390795 0.0550986 1.52553e-19)
(-0.046006 0.056181 4.90564e-20)
(-0.0500074 0.0536166 1.06631e-19)
(-0.0505505 0.0487136 -1.19919e-19)
(-0.0470875 0.0428887 1.8921e-20)
(-0.0407455 0.0377874 -3.00079e-19)
(-0.0253709 0.0356819 2.77431e-20)
(-0.00791276 0.0164714 2.89246e-20)
(-0.0206001 0.0383638 8.04959e-20)
(-0.0319436 0.0515974 -5.44739e-19)
(-0.0405723 0.0579739 -7.57868e-20)
(-0.0460158 0.0589879 7.48404e-20)
(-0.0478263 0.0560646 -3.48654e-19)
(-0.0454512 0.0505325 -1.1099e-20)
(-0.0380758 0.0438659 -7.83869e-21)
(-0.0274039 0.0375788 -1.10535e-19)
(-0.00503528 0.03592 1.65542e-20)
(-0.00896599 0.0171237 -2.93899e-20)
(-0.0227509 0.0398551 1.44053e-19)
(-0.0341199 0.053556 3.61172e-19)
(-0.0418595 0.0600766 -1.7432e-19)
(-0.045556 0.0609689 1.31973e-20)
(-0.044793 0.0576866 -1.32834e-19)
(-0.0389966 0.0515557 -3.3595e-20)
(-0.0271001 0.0441104 3.1402e-19)
(-0.0108842 0.0362934 2.54505e-19)
(0.019945 0.0354268 -3.18635e-20)
(-0.010031 0.017602 3.15241e-20)
(-0.0248808 0.040889 6.15831e-20)
(-0.0361643 0.0548474 -3.22921e-19)
(-0.0428006 0.0613787 1.26838e-19)
(-0.0444132 0.0620939 1.33862e-19)
(-0.040588 0.05847 4.62937e-19)
(-0.0306756 0.0518204 2.4865e-19)
(-0.0135003 0.0436732 -1.2402e-19)
(0.00938353 0.0343227 -3.266e-20)
(0.0510343 0.034323 -1.58969e-19)
(-0.011096 0.0179144 2.14499e-19)
(-0.0269399 0.0414682 -3.17438e-19)
(-0.0379752 0.0554616 4.79958e-19)
(-0.0432246 0.0618593 -1.67143e-19)
(-0.0423221 0.0623405 -1.66667e-19)
(-0.0348217 0.0584083 -5.18131e-19)
(-0.0199322 0.0513565 -3.38002e-19)
(0.00366748 0.0426116 1.86257e-19)
(0.0345575 0.0318619 2.76473e-19)
(0.089565 0.0333302 2.85208e-19)
(-0.0121498 0.0180698 -1.88514e-19)
(-0.0288731 0.0415984 -7.94049e-20)
(-0.0394332 0.0553942 1.0845e-20)
(-0.0429256 0.061506 2.08196e-20)
(-0.038959 0.0616975 4.32275e-19)
(-0.0270074 0.0575125 1.68898e-20)
(-0.00607529 0.0502486 3.29281e-19)
(0.0253493 0.0411866 -2.93251e-19)
(0.0661812 0.0290736 -5.68639e-19)
(0.136916 0.0333582 -2.73232e-19)
(-0.0306173 0.0412868 4.89429e-19)
(-0.0403975 0.054647 7.62187e-21)
(-0.0416578 0.0603178 -2.59793e-19)
(-0.0339358 0.060168 1.59789e-19)
(-0.0165635 0.0558095 -2.69561e-19)
(0.0117378 0.0485935 -5.55018e-20)
(0.0526053 0.039642 1.38234e-19)
(0.106005 0.0263858 1.74179e-19)
(0.194079 0.0354215 1.34309e-19)
(-0.0320983 0.0405409 -2.42094e-19)
(-0.0407017 0.0532306 -2.20948e-19)
(-0.0391296 0.0583088 -3.04413e-20)
(-0.0267957 0.0577777 1.5092e-19)
(-0.00281551 0.0533536 5.08956e-19)
(0.0344692 0.0465209 4.14972e-19)
(0.0865919 0.0382016 6.05527e-20)
(0.155912 0.0245658 5.0128e-19)
(0.260882 0.0405278 2.2284e-19)
(-0.0332256 0.0393689 4.42438e-19)
(-0.0401485 0.0511664 1.09988e-19)
(-0.0349981 0.0555139 4.39698e-19)
(-0.0170073 0.0545872 -1.61707e-19)
(0.0150029 0.0502453 -5.01118e-19)
(0.0631699 0.0442119 -2.5218e-19)
(0.128513 0.0370562 -2.84825e-19)
(0.217685 0.0249098 -6.08902e-19)
(0.335149 0.0495425 -7.41151e-20)
(-0.0385 0.0484843 -2.97597e-19)
(-0.0288636 0.0519961 -1.92768e-19)
(-0.00396309 0.0507062 -7.66337e-20)
(0.0377395 0.0466536 -1.94144e-20)
(0.0989292 0.0419164 7.7885e-20)
(0.179648 0.0363811 1.25127e-19)
(0.292582 0.0293196 2.12295e-19)
(0.412972 0.0619745 -3.55556e-19)
(-0.0354793 0.045228 1.54371e-19)
(-0.0202656 0.047856 2.52251e-19)
(0.0130143 0.0463079 -1.6516e-19)
(0.0662939 0.0428387 3.98091e-19)
(0.14276 0.0399699 -1.35041e-19)
(0.241248 0.0364978 -6.69782e-20)
(0.380414 0.0392953 1.07444e-20)
(0.492022 0.0717554 1.14336e-19)
(-0.00868781 0.0432351 -1.86468e-19)
(0.0346551 0.0416382 1.49392e-19)
(0.101566 0.0391724 -1.32466e-19)
(0.195442 0.0388233 5.54587e-19)
(0.313982 0.0381764 -1.45646e-19)
(0.477287 0.0533576 2.97901e-19)
(0.577907 0.0691935 -1.46275e-19)
(0.061712 0.0370188 -3.25087e-19)
(0.144387 0.0361448 -4.29723e-19)
(0.257443 0.0390745 -4.23149e-19)
(0.397316 0.0426316 5.77404e-20)
(0.575404 0.0658209 2.07005e-19)
(0.699129 0.0700019 -5.49467e-20)
(0.0949118 0.0328392 6.1054e-19)
(0.195406 0.0343369 4.5751e-19)
(0.328802 0.0414131 8.96205e-20)
(0.489266 0.0507546 -2.55116e-21)
(0.676028 0.0786081 -5.48351e-20)
(0.817653 0.0854197 7.93799e-19)
(0.254941 0.0343669 -5.25684e-19)
(0.40887 0.0465018 2.19126e-19)
(0.586755 0.0625873 1.00448e-19)
(0.776611 0.0935744 -6.84942e-19)
(0.922369 0.104921 -1.19038e-19)
(0.496052 0.0548297 -2.25611e-19)
(0.686078 0.0776539 2.40796e-19)
(0.872336 0.110635 1.64473e-20)
(1.01246 0.12503 -1.2266e-19)
(0.783201 0.0952373 8.33382e-20)
(0.959282 0.128917 7.28386e-20)
(1.08596 0.144462 -6.34488e-20)
(1.03481 0.147464 1.14224e-19)
(1.14366 0.162366 3.25355e-19)
(1.18726 0.178503 -1.28212e-19)
(1.0985 -0.165531 -8.03105e-20)
(1.18786 -0.178488 -5.08404e-19)
(1.03548 -0.1475 -8.21882e-20)
(1.14431 -0.162366 5.11167e-19)
(0.783847 -0.0952995 -4.11843e-19)
(0.959978 -0.128966 3.27555e-19)
(1.08666 -0.144478 -1.30256e-19)
(0.49652 -0.0548911 -6.39347e-20)
(0.686692 -0.0777264 7.17251e-20)
(0.873039 -0.110698 -5.11914e-20)
(1.01321 -0.125065 -3.1677e-20)
(0.2552 -0.0344285 -1.63144e-19)
(0.409277 -0.0465776 2.32228e-19)
(0.587322 -0.0626738 2.91957e-19)
(0.777304 -0.0936539 -6.18652e-19)
(0.92315 -0.104975 -2.3381e-19)
(0.0950216 -0.0329134 -1.61276e-19)
(0.195621 -0.0344235 6.12583e-19)
(0.329154 -0.0415122 -7.03027e-20)
(0.489779 -0.0508615 6.98669e-21)
(0.676695 -0.0787089 2.4923e-19)
(0.818451 -0.0854916 4.00731e-19)
(0.0618006 -0.0371248 -4.73623e-19)
(0.144568 -0.036265 -2.64627e-19)
(0.257749 -0.0392067 -4.86332e-19)
(0.397774 -0.0427678 -1.26841e-19)
(0.576039 -0.0659528 2.63121e-19)
(0.699916 -0.070088 -4.19495e-20)
(-0.00867131 -0.0433547 6.75474e-20)
(0.0347302 -0.0417831 -4.59171e-20)
(0.101725 -0.0393345 6.88587e-20)
(0.195714 -0.038998 6.2103e-19)
(0.314392 -0.0383541 -7.474e-20)
(0.47789 -0.0535288 -1.30773e-20)
(0.578665 -0.069299 -1.32351e-19)
(-0.0355021 -0.045344 2.58595e-19)
(-0.0202551 -0.0480142 -9.86452e-20)
(0.0130818 -0.0464979 6.83307e-20)
(0.0664404 -0.0430499 4.11643e-19)
(0.143009 -0.0401953 -3.91465e-19)
(0.241623 -0.036729 2.86177e-19)
(0.380976 -0.0395114 -2.97239e-19)
(0.492795 -0.0719037 1.27875e-19)
(-0.0385286 -0.0486345 -4.39982e-19)
(-0.0288575 -0.0521978 -2.11209e-19)
(-0.00389932 -0.0509462 1.21846e-20)
(0.0378803 -0.046919 -4.05704e-20)
(0.0991668 -0.0421981 1.78375e-19)
(0.180001 -0.0366722 -5.85453e-20)
(0.293099 -0.0295858 2.6991e-19)
(0.413732 -0.0621798 -3.44942e-19)
(-0.0332716 -0.0394819 -1.41628e-19)
(-0.0401836 -0.0513552 4.79532e-19)
(-0.0349961 -0.055763 2.07659e-19)
(-0.0169455 -0.0548805 6.35427e-20)
(0.0151416 -0.0505678 -5.37053e-19)
(0.0634014 -0.0445525 -4.09562e-19)
(0.128854 -0.0374076 -2.77067e-19)
(0.218163 -0.025231 -5.44365e-19)
(0.335883 -0.0498072 -2.63511e-19)
(-0.0321526 -0.0406826 -3.55229e-19)
(-0.0407441 -0.0534611 -1.12064e-19)
(-0.039132 -0.0586082 5.12834e-20)
(-0.0267361 -0.058126 -4.36489e-20)
(-0.00267808 -0.0537336 6.76854e-19)
(0.034697 -0.0469199 3.46188e-19)
(0.086924 -0.0386096 1.80013e-19)
(0.156361 -0.0249438 3.33867e-19)
(0.261577 -0.0408509 1.10473e-19)
(-0.0132132 -0.0181387 -6.9408e-20)
(-0.0306807 -0.0414608 4.61133e-19)
(-0.0404478 -0.0549218 -3.04486e-20)
(-0.0416657 -0.0606686 -1.79062e-19)
(-0.0338796 -0.0605711 8.56354e-20)
(-0.0164289 -0.0562453 -1.08441e-19)
(0.0119613 -0.0490479 -2.82168e-19)
(0.0529289 -0.0401015 1.10253e-19)
(0.106431 -0.0268186 3.41545e-19)
(0.194728 -0.0358015 1.57303e-20)
(-0.0121872 -0.0181468 -8.96658e-20)
(-0.0289455 -0.0418071 -1.5511e-19)
(-0.0394918 -0.0557152 -1.60036e-19)
(-0.0429401 -0.0619086 9.02029e-20)
(-0.0389083 -0.0621539 3.15157e-19)
(-0.0268784 -0.058001 3.26043e-19)
(-0.00585905 -0.0507538 1.14274e-19)
(0.0256607 -0.0416907 -3.74958e-19)
(0.0665828 -0.0295586 -3.15442e-19)
(0.137514 -0.0337928 -3.37259e-19)
(-0.0111385 -0.0180081 2.62243e-19)
(-0.0270208 -0.0417132 -3.29084e-19)
(-0.0380421 -0.0558294 2.17289e-19)
(-0.0432467 -0.0623129 1.91468e-19)
(-0.0422792 -0.0628478 -4.25987e-19)
(-0.0347018 -0.0589451 -3.70713e-19)
(-0.0197267 -0.0519066 -4.45322e-19)
(0.00396109 -0.0431503 1.65173e-19)
(0.0349316 -0.0323872 1.71089e-19)
(0.0901102 -0.033816 4.77369e-19)
(-0.0100779 -0.0177135 -1.87648e-19)
(-0.024969 -0.0411713 7.90065e-20)
(-0.0362389 -0.055262 -2.49848e-19)
(-0.0428308 -0.0618815 2.02076e-19)
(-0.0443796 -0.0626489 2.99247e-20)
(-0.04048 -0.0590508 5.75341e-19)
(-0.0304833 -0.0524097 2.6991e-19)
(-0.0132288 -0.0442414 -1.41823e-19)
(0.00972677 -0.0348695 -5.78395e-20)
(0.051519 -0.0348562 4.28339e-21)
(-0.00901635 -0.0172533 -8.26921e-20)
(-0.0228449 -0.040175 2.07072e-19)
(-0.0342011 -0.0540162 2.62211e-19)
(-0.0418977 -0.0606263 -2.78608e-20)
(-0.045533 -0.0615679 -2.5702e-19)
(-0.0446991 -0.058307 -2.41889e-21)
(-0.0388222 -0.0521818 8.35082e-20)
(-0.0268612 -0.0447199 1.64795e-19)
(-0.0105756 -0.0368399 3.1028e-19)
(0.020362 -0.0359999 -8.9461e-21)
(-0.00796537 -0.0166193 -2.96255e-20)
(-0.0206978 -0.0387206 1.4915e-20)
(-0.0320298 -0.0521015 -4.05525e-19)
(-0.0406177 -0.0585673 -1.57902e-19)
(-0.0460038 -0.0596268 5.74853e-20)
(-0.0477492 -0.0567196 -3.70654e-19)
(-0.0453039 -0.0511882 1.81728e-19)
(-0.0378628 -0.0445168 -2.40633e-19)
(-0.027146 -0.0381578 -1.09135e-19)
(-0.00468225 -0.0364907 1.67915e-19)
(-0.00693771 -0.0158046 -7.98118e-20)
(-0.0185736 -0.0368089 -1.26674e-19)
(-0.0298116 -0.049533 4.28384e-19)
(-0.0391308 -0.0557324 6.31437e-20)
(-0.0460045 -0.0568555 2.80212e-19)
(-0.0499475 -0.054301 -3.15618e-20)
(-0.0504302 -0.0493913 -5.74569e-20)
(-0.0469093 -0.0435544 -7.41984e-20)
(-0.0405355 -0.0384165 -2.90212e-19)
(-0.0250559 -0.0362438 -6.52502e-20)
(-0.00594742 -0.0148057 1.02703e-19)
(-0.0165153 -0.0344463 -1.42952e-19)
(-0.0276208 -0.0463333 -1.96774e-20)
(-0.0375506 -0.0521569 -4.01225e-20)
(-0.0457009 -0.0532927 -2.64965e-19)
(-0.0515328 -0.0510773 -6.50172e-22)
(-0.0545291 -0.0467816 -7.53336e-20)
(-0.054308 -0.041737 4.01111e-20)
(-0.0514811 -0.0374283 1.79769e-19)
(-0.0420798 -0.0353888 5.32423e-20)
(-0.0050097 -0.0136224 -1.89085e-19)
(-0.0145636 -0.031646 1.53533e-19)
(-0.0255211 -0.042533 -1.90648e-19)
(-0.0359682 -0.0478847 9.71347e-21)
(-0.04522 -0.0489872 1.06057e-20)
(-0.0526811 -0.0470912 2.45194e-19)
(-0.0578367 -0.0433861 -4.88947e-20)
(-0.0603894 -0.039081 -1.3126e-20)
(-0.0606303 -0.0354543 6.53526e-20)
(-0.0562383 -0.0337518 -3.02032e-19)
(-0.00414055 -0.0122592 2.02099e-19)
(-0.012757 -0.0284295 -1.11957e-19)
(-0.0235673 -0.0381714 1.13208e-19)
(-0.034456 -0.0429688 6.32667e-20)
(-0.044657 -0.0439978 2.47389e-20)
(-0.0535194 -0.0424 -5.87211e-20)
(-0.0605228 -0.0392567 -7.98224e-20)
(-0.0654107 -0.0356388 -8.677e-20)
(-0.0683097 -0.0326184 1.55344e-19)
(-0.0679367 -0.0312251 1.13193e-19)
(-0.00335624 -0.0107254 -5.27596e-20)
(-0.0111314 -0.024827 2.72347e-20)
(-0.0218062 -0.0332976 1.57657e-20)
(-0.0330709 -0.0374714 -2.03493e-19)
(-0.044082 -0.0383932 4.06309e-20)
(-0.0541364 -0.0370732 4.04252e-20)
(-0.0627029 -0.0344627 -8.438e-20)
(-0.0695414 -0.0314818 4.42739e-20)
(-0.0747023 -0.0290079 -3.56798e-20)
(-0.0775362 -0.0278737 -7.38843e-20)
(-0.00267265 -0.00903545 -4.29709e-20)
(-0.00971971 -0.020878 1.60049e-20)
(-0.0202772 -0.0279701 -3.42272e-20)
(-0.031857 -0.0314638 1.11022e-19)
(-0.0435451 -0.0322514 -2.39804e-20)
(-0.0545915 -0.0311915 -1.71457e-19)
(-0.0644517 -0.0290872 1.08828e-19)
(-0.0728894 -0.0266998 1.87802e-19)
(-0.0799247 -0.0247256 6.09382e-20)
(-0.0852934 -0.0238176 -1.68283e-21)
(-0.00210458 -0.00720917 -1.26275e-20)
(-0.0085509 -0.0166305 4.46001e-20)
(-0.0190131 -0.0222566 -8.83716e-20)
(-0.0308482 -0.0250256 3.27808e-20)
(-0.0430816 -0.0256582 -5.46306e-20)
(-0.0549235 -0.0248442 1.38806e-19)
(-0.065816 -0.0232242 -7.44486e-20)
(-0.0755205 -0.0213955 -6.73983e-20)
(-0.0840498 -0.0198859 -1.07926e-19)
(-0.0913726 -0.0191841 1.00275e-19)
(-0.00166496 -0.00527094 4.73129e-20)
(-0.00764949 -0.0121411 -2.29803e-20)
(-0.0180399 -0.016233 3.99324e-20)
(-0.0300695 -0.0182439 5.43254e-20)
(-0.0427156 -0.0187064 1.21991e-19)
(-0.0551566 -0.0181276 -9.16311e-20)
(-0.0668233 -0.0169753 2.41283e-20)
(-0.077473 -0.0156789 -7.61854e-20)
(-0.08712 -0.0146085 7.22973e-20)
(-0.0958728 -0.0141016 -6.5651e-20)
(-0.00136423 -0.00324926 -1.55726e-20)
(-0.00703467 -0.00747294 5.35738e-21)
(-0.0173774 -0.00998196 6.20735e-21)
(-0.0295389 -0.0112117 -4.54439e-20)
(-0.0424625 -0.0114941 -2.45657e-20)
(-0.0553053 -0.0111435 2.56823e-20)
(-0.0674889 -0.0104472 4.14455e-21)
(-0.0787674 -0.00966514 8.02927e-20)
(-0.0891587 -0.00901664 -6.17603e-20)
(-0.0988503 -0.00869859 -2.02648e-20)
(-0.00120972 -0.00117575 -2.6301e-21)
(-0.00671971 -0.00269444 8.37734e-21)
(-0.0170387 -0.00359145 -5.23124e-21)
(-0.0292676 -0.00402656 4.04733e-21)
(-0.042332 -0.00412342 -1.9385e-20)
(-0.0553774 -0.00399709 -4.69277e-21)
(-0.0678208 -0.00375007 -6.13022e-21)
(-0.079414 -0.00347205 -1.95656e-20)
(-0.0901776 -0.0032357 -1.41722e-21)
(-0.100335 -0.00310373 2.12199e-20)
(-0.109275 0.00269292 -1.00708e-21)
(-0.117531 0.00268293 4.00499e-21)
(-0.125784 0.00265753 8.45773e-23)
(-0.134051 0.00264552 -4.16282e-21)
(-0.142326 0.00265321 4.81018e-21)
(-0.150596 0.00268558 -1.91192e-22)
(-0.158853 0.0027454 -8.20408e-22)
(-0.167085 0.0028352 -8.93569e-22)
(-0.175277 0.00295757 7.63461e-22)
(-0.183412 0.00311473 1.69823e-21)
(-0.191473 0.00330788 -1.80921e-21)
(-0.199446 0.00353645 -5.03234e-22)
(-0.207317 0.00379736 5.58278e-22)
(-0.215072 0.0040842 3.60936e-22)
(-0.222697 0.00438644 -3.84689e-22)
(-0.230175 0.00468859 8.17979e-23)
(-0.237485 0.00496911 -1.62579e-21)
(-0.244598 0.00520162 8.15787e-22)
(-0.251476 0.00535388 7.33305e-22)
(-0.258067 0.00538985 -1.06862e-21)
(-0.264303 0.00526225 1.85597e-21)
(-0.270101 0.00493549 -4.31832e-23)
(-0.27535 0.0043733 -2.51832e-21)
(-0.279918 0.00354657 1.63049e-21)
(-0.283641 0.00243583 8.29889e-22)
(-0.286317 0.00104274 -1.43806e-21)
(-0.287731 -0.000609264 4.8681e-22)
(-0.287684 -0.00245504 8.71817e-22)
(-0.285812 -0.00444443 5.96458e-23)
(-0.281911 -0.00644057 -6.13647e-22)
(-0.275423 -0.00833841 6.80166e-22)
(-0.266374 -0.00992055 1.19377e-21)
(-0.253818 -0.0111176 -6.09443e-23)
(-0.238317 -0.0116592 -7.82301e-22)
(-0.218499 -0.0115798 2.10492e-22)
(-0.195034 -0.0106587 3.3743e-22)
(-0.168227 -0.00909764 -2.78829e-22)
(-0.133465 -0.00686033 3.09967e-22)
(-0.10521 -0.00414292 -3.69292e-22)
(-0.0482374 -0.00167257 -3.22359e-22)
(-0.0341081 0.00102199 -7.35592e-23)
(0.0657102 0.00149987 5.63418e-24)
(-0.107503 0.00847752 -2.872e-20)
(-0.115635 0.00835025 1.23442e-20)
(-0.123735 0.00815163 2.92143e-21)
(-0.131856 0.0079586 1.11513e-20)
(-0.139992 0.00778265 -6.39467e-21)
(-0.148124 0.00763217 1.03153e-21)
(-0.156244 0.00750874 -6.82414e-21)
(-0.164336 0.00741346 -1.87108e-21)
(-0.172385 0.00734847 -1.64961e-21)
(-0.180371 0.00731658 -2.15243e-21)
(-0.18828 0.00732004 1.58294e-20)
(-0.196096 0.00735944 -2.0663e-20)
(-0.203803 0.00743255 3.57581e-21)
(-0.21139 0.00753327 1.3657e-20)
(-0.218839 0.00765077 -1.19548e-20)
(-0.226135 0.00776846 -1.14483e-22)
(-0.233254 0.00786272 9.96668e-21)
(-0.240168 0.00790473 2.10447e-21)
(-0.246837 0.00785857 -7.96145e-21)
(-0.253208 0.00768329 -1.24659e-21)
(-0.259213 0.00733084 5.64434e-21)
(-0.264765 0.00675864 -9.20153e-22)
(-0.269754 0.00592537 9.77376e-22)
(-0.274048 0.00479829 1.16841e-22)
(-0.277485 0.00335387 -3.25498e-21)
(-0.279865 0.00159483 3.23008e-23)
(-0.280977 -0.000466258 -5.8753e-23)
(-0.280634 -0.00277597 2.19126e-21)
(-0.278479 -0.00528145 -8.61372e-22)
(-0.274326 -0.00782212 2.06404e-21)
(-0.267617 -0.0103324 2.42371e-22)
(-0.258424 -0.0125178 -3.21912e-22)
(-0.245768 -0.0144082 1.08471e-22)
(-0.230289 -0.015554 1.37073e-21)
(-0.210524 -0.0162256 -1.05816e-21)
(-0.187262 -0.0158174 1.49574e-22)
(-0.160657 -0.0150602 -4.39072e-22)
(-0.126172 -0.0130557 -6.7473e-22)
(-0.0982163 -0.0114505 2.68141e-22)
(-0.0414503 -0.00853495 -1.22394e-22)
(-0.0273894 -0.00782642 1.45522e-22)
(0.0720149 -0.00708701 -9.07058e-24)
(-0.103948 0.0140817 2.03585e-20)
(-0.111839 0.0138457 -3.70913e-20)
(-0.119639 0.0134892 2.3206e-20)
(-0.127476 0.0131277 5.11702e-21)
(-0.135342 0.0127761 4.05347e-21)
(-0.14321 0.0124477 -1.8225e-20)
(-0.151064 0.0121438 1.08516e-20)
(-0.158888 0.0118649 -1.60563e-20)
(-0.166662 0.0116132 3.84774e-20)
(-0.174367 0.0113925 -2.59655e-20)
(-0.181986 0.0112063 1.3507e-20)
(-0.189502 0.0110565 -3.43781e-21)
(-0.196901 0.0109418 3.11709e-21)
(-0.204168 0.0108565 -3.44409e-21)
(-0.211287 0.0107892 -1.15363e-20)
(-0.218239 0.0107224 6.03592e-21)
(-0.225002 0.0106309 -8.60984e-21)
(-0.231544 0.0104829 4.23029e-21)
(-0.237824 0.0102393 -2.57444e-21)
(-0.243788 0.00985452 -2.31029e-21)
(-0.249366 0.00927755 5.09568e-21)
(-0.254471 0.00846057 7.95231e-22)
(-0.25899 0.00735735 -1.98519e-22)
(-0.262794 0.00593166 -3.6855e-21)
(-0.26572 0.00415534 8.16837e-21)
(-0.267574 0.00203218 -1.93345e-21)
(-0.268152 -0.000430105 -1.18059e-21)
(-0.267279 -0.00319728 2.54165e-21)
(-0.264598 -0.00621122 -4.23877e-21)
(-0.25996 -0.00928505 -2.82049e-21)
(-0.252792 -0.0123934 4.47345e-21)
(-0.24324 -0.0151645 -4.76823e-21)
(-0.230258 -0.0177303 1.00379e-22)
(-0.21463 -0.0194625 6.95702e-22)
(-0.194718 -0.0208666 2.06875e-21)
(-0.171554 -0.0209581 7.10546e-22)
(-0.14501 -0.0210015 1.02675e-21)
(-0.110755 -0.0192134 9.30229e-22)
(-0.0830573 -0.0187275 -2.59419e-23)
(-0.0266014 -0.0153353 7.57748e-22)
(-0.0124561 -0.0166152 1.31686e-22)
(0.0858748 -0.0156799 -7.93818e-23)
(-0.098592 0.0193945 1.26431e-21)
(-0.106135 0.0190633 -1.42304e-20)
(-0.1135 0.0185742 2.63058e-20)
(-0.120921 0.0180652 -6.93183e-21)
(-0.128394 0.0175518 -1.44614e-20)
(-0.135875 0.0170541 3.22367e-20)
(-0.143343 0.0165749 -1.4499e-20)
(-0.150775 0.0161154 -2.82184e-20)
(-0.158149 0.0156785 7.38407e-21)
(-0.165444 0.0152699 1.22149e-21)
(-0.172641 0.0148946 -6.46745e-21)
(-0.179723 0.014556 2.04947e-20)
(-0.186674 0.0142538 5.55255e-21)
(-0.193479 0.0139825 -7.75766e-21)
(-0.200121 0.0137307 -2.73241e-22)
(-0.206579 0.0134796 -1.09954e-20)
(-0.212828 0.0132024 2.25696e-20)
(-0.218836 0.0128647 -1.06596e-20)
(-0.22456 0.0124239 -1.28414e-20)
(-0.229943 0.0118305 8.55786e-21)
(-0.234915 0.0110295 5.63072e-21)
(-0.239385 0.00996833 -1.24805e-21)
(-0.243242 0.00859612 7.81395e-21)
(-0.246357 0.00687345 -7.07822e-21)
(-0.248567 0.00476765 -1.15731e-21)
(-0.249684 0.0022857 -3.10407e-21)
(-0.249517 -0.000578035 1.30039e-20)
(-0.247903 -0.0037907 -8.36985e-21)
(-0.244478 -0.00730147 -4.16848e-21)
(-0.239145 -0.0108936 5.18553e-21)
(-0.231302 -0.0145824 -3.43158e-21)
(-0.221198 -0.0179184 1.86782e-21)
(-0.207684 -0.0211355 -9.81335e-22)
(-0.191754 -0.0234298 5.37426e-21)
(-0.171513 -0.0255414 -4.82545e-21)
(-0.14835 -0.0261081 8.05562e-22)
(-0.121741 -0.0269408 -2.44447e-21)
(-0.0876733 -0.025346 -1.32302e-21)
(-0.0601881 -0.0259978 -9.83153e-22)
(-0.00417276 -0.0220211 -8.90891e-22)
(0.0101689 -0.0253367 2.81396e-22)
(0.106842 -0.0242421 5.87839e-23)
(-0.0913969 0.0243169 8.86272e-21)
(-0.0985008 0.0239056 3.35988e-20)
(-0.105309 0.023318 -1.30923e-20)
(-0.112194 0.0226904 -5.46676e-20)
(-0.119161 0.022034 6.54321e-20)
(-0.126142 0.0213791 -3.5434e-21)
(-0.13311 0.0207321 -2.05808e-20)
(-0.140035 0.0200964 1.87814e-20)
(-0.146892 0.0194771 -2.24241e-20)
(-0.153656 0.0188822 1.93591e-20)
(-0.160309 0.0183189 -3.14487e-22)
(-0.166831 0.0177924 -1.64098e-20)
(-0.173207 0.0173034 -6.04815e-21)
(-0.179419 0.016847 7.02449e-21)
(-0.185449 0.0164111 2.25766e-20)
(-0.191276 0.0159761 -3.6003e-21)
(-0.19687 0.0155135 -2.87179e-20)
(-0.202198 0.0149864 1.92801e-20)
(-0.207215 0.0143487 -1.98968e-20)
(-0.211862 0.0135472 5.78744e-21)
(-0.216067 0.0125229 -6.16737e-21)
(-0.219738 0.0112187 6.975e-21)
(-0.222763 0.00957902 9.28094e-21)
(-0.225013 0.00756182 7.79161e-21)
(-0.226328 0.00513005 -1.53827e-20)
(-0.226528 0.00229589 -1.31015e-21)
(-0.225432 -0.000968695 6.51148e-21)
(-0.222894 -0.00461329 5.45739e-21)
(-0.218539 -0.00860679 -1.20499e-20)
(-0.212332 -0.0126996 -3.44779e-21)
(-0.203631 -0.0169477 -2.1049e-21)
(-0.192816 -0.0208247 2.51744e-21)
(-0.178593 -0.0246644 -1.0984e-21)
(-0.162237 -0.0274925 -4.46297e-21)
(-0.14151 -0.0302816 -1.90085e-21)
(-0.118271 -0.03129 6.46437e-22)
(-0.0914976 -0.0328966 -1.31307e-21)
(-0.0575907 -0.0314577 1.05573e-21)
(-0.0302653 -0.033308 -9.65925e-23)
(0.0251522 -0.0286651 1.77201e-21)
(0.0397314 -0.0338593 -8.334e-22)
(0.13427 -0.032721 4.97156e-23)
(-0.0822854 0.0287673 9.99573e-21)
(-0.088885 0.028288 -1.0125e-19)
(-0.0950327 0.0276428 4.33669e-20)
(-0.10128 0.026932 -2.15184e-21)
(-0.107642 0.0261559 4.10969e-20)
(-0.114023 0.0253586 -1.78588e-20)
(-0.120387 0.0245531 1.78045e-21)
(-0.1267 0.0237471 -3.7251e-20)
(-0.132933 0.022949 4.37601e-20)
(-0.139057 0.0221705 -1.5764e-21)
(-0.145054 0.0214214 -1.66472e-20)
(-0.150904 0.0207087 -9.21643e-21)
(-0.15659 0.0200345 1.13235e-20)
(-0.162094 0.0193942 7.2485e-21)
(-0.167394 0.0187754 2.26847e-20)
(-0.172468 0.0181575 -3.34744e-20)
(-0.177285 0.0175103 -4.99479e-21)
(-0.181807 0.0167945 3.7434e-21)
(-0.185988 0.0159609 -4.92472e-21)
(-0.189767 0.0149525 1.02456e-20)
(-0.193067 0.0137061 8.64668e-21)
(-0.1958 0.0121608 1.43014e-21)
(-0.197849 0.0102562 -2.44716e-20)
(-0.199091 0.00794817 4.01379e-21)
(-0.199362 0.00519584 1.69627e-20)
(-0.198497 0.00201773 -9.08254e-21)
(-0.196325 -0.00164452 -6.70396e-21)
(-0.192715 -0.00570753 1.38656e-20)
(-0.187281 -0.0101675 -1.27964e-20)
(-0.180063 -0.0147408 1.59119e-20)
(-0.170356 -0.019524 6.8167e-21)
(-0.15871 -0.023915 -5.0383e-21)
(-0.14364 -0.0283449 -7.95087e-23)
(-0.126769 -0.0316748 -1.13963e-21)
(-0.105437 -0.0351076 -5.99432e-22)
(-0.0820675 -0.0365177 4.87745e-21)
(-0.0550644 -0.0388846 3.14048e-21)
(-0.0213226 -0.0375304 -1.6396e-21)
(0.00588587 -0.0406 2.5145e-21)
(0.0605851 -0.0354086 -1.81661e-21)
(0.0753559 -0.0420809 -5.552e-22)
(0.167353 -0.0410641 -7.56355e-23)
(-0.071121 0.0326908 2.53211e-20)
(-0.0771926 0.0321426 -3.56812e-20)
(-0.0825999 0.0314852 -3.40037e-20)
(-0.0881292 0.0307311 -6.48609e-21)
(-0.0938049 0.0298614 6.62327e-20)
(-0.0995 0.0289384 -9.54489e-20)
(-0.105172 0.027985 4.94376e-20)
(-0.110781 0.0270158 2.78474e-20)
(-0.116294 0.0260437 7.39685e-21)
(-0.121683 0.0250852 -3.3475e-20)
(-0.126927 0.0241536 2.95213e-20)
(-0.132007 0.0232578 -2.20938e-20)
(-0.136905 0.0224011 5.50596e-21)
(-0.141601 0.0215793 9.11482e-21)
(-0.146073 0.0207798 3.55339e-21)
(-0.150294 0.0199808 -5.05387e-20)
(-0.154232 0.0191506 2.4628e-20)
(-0.157846 0.0182476 1.38909e-20)
(-0.161086 0.0172198 -2.79082e-20)
(-0.163889 0.0160065 1.3547e-20)
(-0.166178 0.0145403 1.76727e-20)
(-0.167861 0.0127568 5.01002e-21)
(-0.168823 0.0105911 -1.76196e-21)
(-0.168944 0.00799716 8.90072e-22)
(-0.168056 0.00493602 2.92755e-21)
(-0.166018 0.00146762 1.44517e-21)
(-0.162658 -0.0026317 4.83803e-21)
(-0.157868 -0.00710211 -1.1411e-20)
(-0.151246 -0.0120098 3.33317e-22)
(-0.14292 -0.0170412 -7.86726e-21)
(-0.132106 -0.0223325 9.46717e-21)
(-0.119552 -0.0272086 -7.74814e-22)
(-0.103539 -0.032193 -4.778e-21)
(-0.0861021 -0.0359892 -7.89512e-21)
(-0.0640905 -0.0400293 7.15331e-21)
(-0.0405654 -0.0417961 -3.6918e-21)
(-0.0132998 -0.0449252 4.97359e-21)
(0.0202485 -0.0435626 -9.07858e-22)
(0.0473176 -0.0477672 -8.28221e-22)
(0.101197 -0.0422416 -1.10708e-22)
(0.116101 -0.0500401 1.32424e-21)
(0.205202 -0.0492252 8.25977e-23)
(-0.0576819 0.0360658 -9.31923e-20)
(-0.0632638 0.0354217 7.53225e-21)
(-0.0678762 0.0348 1.20316e-20)
(-0.0726336 0.0340442 3.96084e-20)
(-0.0775666 0.0331082 -6.01208e-20)
(-0.0825104 0.0320766 -1.53624e-20)
(-0.0874163 0.0309861 3.04461e-20)
(-0.0922441 0.0298614 -9.11134e-21)
(-0.0969583 0.0287211 -1.9326e-20)
(-0.101531 0.0275878 1.80381e-20)
(-0.105942 0.0264782 4.66456e-21)
(-0.110172 0.0254039 -1.89702e-20)
(-0.114203 0.024369 2.14692e-20)
(-0.118014 0.0233696 -1.46886e-20)
(-0.121581 0.0223927 5.54813e-22)
(-0.124873 0.0214156 4.65494e-20)
(-0.127855 0.020405 -3.38662e-20)
(-0.130483 0.0193174 1.15998e-20)
(-0.132705 0.0180979 -1.06186e-20)
(-0.134455 0.0166827 1.19726e-20)
(-0.135654 0.015 -5.04229e-20)
(-0.136208 0.0129825 2.35845e-20)
(-0.136003 0.0105609 1.85967e-20)
(-0.134923 0.00768746 -5.15321e-21)
(-0.132786 0.00432497 8.39879e-22)
(-0.129518 0.000542214 -1.13238e-21)
(-0.124911 -0.00395219 -1.53111e-20)
(-0.118861 -0.0088112 -2.89941e-21)
(-0.110984 -0.0141453 2.10072e-21)
(-0.101499 -0.0196106 2.65412e-21)
(-0.089517 -0.025381 2.97655e-21)
(-0.0760242 -0.0307114 5.3608e-21)
(-0.0590178 -0.0362115 -1.35133e-21)
(-0.041006 -0.0404375 8.37103e-21)
(-0.0182847 -0.0450448 -1.17962e-21)
(0.00538655 -0.0471193 -6.26751e-21)
(0.0329126 -0.0509843 1.62143e-21)
(0.0662292 -0.0495936 -2.19052e-21)
(0.0930912 -0.0548 -3.48748e-21)
(0.146023 -0.0490738 -3.96674e-22)
(0.161005 -0.0577477 3.31054e-22)
(0.246907 -0.0571618 6.47282e-24)
(-0.0416318 0.0388508 1.15066e-20)
(-0.0468474 0.0381058 -5.25417e-20)
(-0.05064 0.0375697 2.87442e-20)
(-0.0546061 0.0368473 2.56624e-21)
(-0.0587684 0.0358702 -1.19421e-20)
(-0.0629192 0.0347454 8.38216e-20)
(-0.0670063 0.033527 1.11779e-20)
(-0.0709933 0.0322549 -4.3499e-20)
(-0.0748473 0.0309532 -3.45727e-20)
(-0.0785417 0.0296514 4.50619e-20)
(-0.0820586 0.0283704 -3.75844e-20)
(-0.0853806 0.0271238 3.18176e-20)
(-0.0884887 0.0259167 -3.69521e-20)
(-0.0913606 0.0247453 -3.13362e-21)
(-0.0939693 0.023596 7.24564e-22)
(-0.0962821 0.0224451 7.47452e-20)
(-0.0982595 0.021258 -1.17402e-20)
(-0.0998545 0.0199894 9.00297e-21)
(-0.10101 0.0185819 -4.14596e-22)
(-0.10166 0.0169687 -7.88318e-21)
(-0.101721 0.0150739 -1.65521e-21)
(-0.1011 0.012828 -1.55767e-20)
(-0.0996841 0.0101571 3.5112e-20)
(-0.0973609 0.00701261 8.81395e-21)
(-0.0939411 0.00335659 -1.73203e-20)
(-0.0894023 -0.000799592 1.14314e-20)
(-0.0835045 -0.00560774 -1.7346e-20)
(-0.0761785 -0.0108346 1.54241e-20)
(-0.0670207 -0.0165717 -5.62659e-21)
(-0.0563696 -0.0224461 4.97985e-21)
(-0.0432049 -0.0286622 -3.80122e-21)
(-0.0287849 -0.0344175 -3.06855e-21)
(-0.0107809 -0.0403898 1.14924e-20)
(0.00777622 -0.0450099 -1.72379e-21)
(0.0311897 -0.0501408 2.68472e-21)
(0.0549697 -0.0524719 2.39095e-21)
(0.0827039 -0.057021 -4.21319e-21)
(0.115726 -0.0556161 2.80506e-21)
(0.142314 -0.0617083 2.86215e-21)
(0.194126 -0.0558453 1.3789e-21)
(0.209137 -0.0651903 1.64163e-21)