/*--------------------------------*- C++ -*----------------------------------*\
  =========                 |
  \\      /  F ield         | OpenFOAM: The Open Source CFD Toolbox
   \\    /   O peration     | Website:  https://openfoam.org
    \\  /    A nd           | Version:  7
     \\/     M anipulation  |
\*---------------------------------------------------------------------------*/
FoamFile
{
    version     2.0;
    format      ascii;
    class       surfaceScalarField;
    location    "5";
    object      phi;
}
// * * * * * * * * * * * * * * * * * * * * * * * * * * * * * * * * * * * * * //

dimensions      [0 3 -1 0 0 0 0];

internalField   nonuniform List<scalar> 
12578
(
-4.57364e-06
4.57133e-06
2.30786e-09
-1.56956e-05
1.11163e-05
5.73857e-09
-3.17246e-05
1.60212e-05
7.72019e-09
-5.10879e-05
1.93555e-05
7.87477e-09
-7.23177e-05
2.12237e-05
6.01632e-09
-9.41174e-05
2.17975e-05
2.18583e-09
-0.000115449
2.13349e-05
-3.3066e-09
-0.000135659
2.02201e-05
-9.86107e-09
-0.000154536
1.88936e-05
-1.66361e-08
1.78973e-05
-2.26593e-08
-0.000172411
-4.48456e-06
9.0559e-06
-1.53531e-05
2.19848e-05
-3.09522e-05
3.16203e-05
-4.96887e-05
3.8092e-05
-7.00648e-05
4.15998e-05
-9.07436e-05
4.24763e-05
-0.000110636
4.12272e-05
-0.000129031
3.86152e-05
-0.000145663
3.55259e-05
3.30374e-05
-0.000160804
-4.30817e-06
1.33641e-05
-1.46738e-05
3.23505e-05
-2.94194e-05
4.63659e-05
-4.6911e-05
5.55836e-05
-6.55914e-05
6.02802e-05
-8.40434e-05
6.09283e-05
-0.000101076
5.82601e-05
-0.000115864
5.34031e-05
-0.000128034
4.76961e-05
4.27438e-05
-0.000137741
-4.04774e-06
1.74118e-05
-1.36688e-05
4.19715e-05
-2.71492e-05
5.98462e-05
-4.27942e-05
7.12287e-05
-5.89592e-05
7.64452e-05
-7.41078e-05
7.6077e-05
-8.68989e-05
7.10512e-05
-9.63337e-05
6.2838e-05
-0.000101878
5.32405e-05
4.43799e-05
-0.000103514
-3.7079e-06
2.11197e-05
-1.23535e-05
5.06172e-05
-2.41736e-05
7.16664e-05
-3.73942e-05
8.44492e-05
-5.02559e-05
8.93068e-05
-6.10673e-05
8.68884e-05
-6.82886e-05
7.82724e-05
-7.0691e-05
6.52404e-05
-6.75412e-05
5.00907e-05
3.5365e-05
-5.85263e-05
-3.29421e-06
2.44139e-05
-1.07467e-05
5.80697e-05
-2.05322e-05
8.14519e-05
-3.07793e-05
9.46963e-05
-3.95898e-05
9.81173e-05
-4.50834e-05
9.23819e-05
-4.54765e-05
7.86655e-05
-3.92409e-05
5.90048e-05
-2.53966e-05
3.62464e-05
1.42049e-05
-4.23653e-06
-2.81279e-06
2.72267e-05
-8.86909e-06
6.41259e-05
-1.62687e-05
8.88515e-05
-2.30262e-05
0.000101454
-2.7083e-05
0.000102174
-2.63396e-05
9.16385e-05
-1.87296e-05
7.10555e-05
-2.40402e-06
4.26792e-05
2.41583e-05
9.6841e-06
-2.27847e-05
6.11479e-05
-2.26984e-06
2.94965e-05
-6.74192e-06
6.8598e-05
-1.14281e-05
9.35377e-05
-1.42146e-05
0.00010424
-1.28634e-05
0.000100823
-5.03105e-06
8.38061e-05
1.16729e-05
5.43516e-05
3.95091e-05
1.48431e-05
8.02383e-05
-3.10451e-05
-7.72042e-05
0.000134658
-1.67114e-06
3.11677e-05
-4.38539e-06
7.13123e-05
-6.05424e-06
9.52065e-05
-4.42198e-06
0.000102608
2.94271e-06
9.34583e-05
1.86466e-05
6.81022e-05
4.54327e-05
2.75654e-05
8.60002e-05
-2.57244e-05
0.000142595
-8.76404e-05
-0.000150943
0.000216334
-1.0217e-06
3.21894e-05
-1.81729e-06
7.21079e-05
-1.85025e-07
9.35743e-05
6.28073e-06
9.61423e-05
2.02186e-05
7.95204e-05
4.45107e-05
4.38102e-05
8.22719e-05
-1.01958e-05
0.000136689
-8.01415e-05
0.000210563
-0.000161515
-0.000245808
0.000305428
-3.2575e-07
3.25151e-05
9.46998e-07
7.08351e-05
6.14314e-06
8.83781e-05
1.78329e-05
8.44526e-05
3.88638e-05
5.84895e-05
7.23995e-05
1.02745e-05
0.000121936
-5.97324e-05
0.00019118
-0.000149386
0.000283573
-0.000253907
-0.000363311
0.000401076
4.15515e-07
3.20996e-05
3.89723e-06
6.73534e-05
1.2908e-05
7.93674e-05
3.01869e-05
6.71737e-05
5.87973e-05
2.98791e-05
0.000102181
-3.3109e-05
0.000164209
-0.00012176
0.000249122
-0.000234299
0.000361085
-0.00036587
-0.000504946
0.00050272
1.19874e-06
3.09009e-05
7.02589e-06
6.15263e-05
2.00895e-05
6.63037e-05
4.3307e-05
4.39563e-05
7.99589e-05
-6.77287e-06
0.000133756
-8.69057e-05
0.00020892
-0.000196925
0.000310214
-0.000335593
0.000442595
-0.00049825
-0.000671878
0.000609527
2.02461e-06
2.88763e-05
1.03278e-05
5.3223e-05
2.76739e-05
4.89577e-05
5.71664e-05
1.44637e-05
0.000102306
-5.1912e-05
0.000167057
-0.000151657
0.000255955
-0.000285823
0.000374228
-0.000453867
0.000527648
-0.00065167
-0.000864971
0.000720741
2.89284e-06
1.37989e-05
4.23169e-05
3.56484e-05
2.71082e-05
7.17411e-05
-2.16289e-05
0.000125801
-0.000105972
0.000202038
-0.000227893
0.000305245
-0.00038903
0.000441022
-0.000589643
0.000615887
-0.000826535
-0.0010847
0.000835616
1.74335e-05
2.86865e-05
4.39964e-05
5.45331e-07
8.69996e-05
-6.46321e-05
0.000150402
-0.000169375
0.000238652
-0.000316143
0.000356755
-0.000507133
0.000510549
-0.000743437
0.00070709
-0.00102308
-0.00133103
0.000953424
2.12218e-05
1.22185e-05
5.26909e-05
-3.09238e-05
0.000102891
-0.000114832
0.000176032
-0.000242517
0.000276817
-0.000416929
0.000410439
-0.000640754
0.000582839
-0.000915837
0.000801213
-0.00124145
-0.0016034
0.00107358
2.51471e-05
6.16888e-05
-6.74655e-05
0.000119329
-0.000172472
0.000202556
-0.000325744
0.000316366
-0.000530739
0.000466188
-0.000790577
0.000657992
-0.00110764
0.00089842
-0.00148188
-0.00190099
0.001196
7.09256e-05
-0.000109207
0.000136184
-0.000237731
0.000229746
-0.000419306
0.000356978
-0.00065797
0.000523744
-0.000957343
0.000736304
-0.0013202
0.000999689
-0.00174526
-0.00222328
0.00132198
8.03146e-05
0.00015327
-0.000310686
0.00025725
-0.000523285
0.000398051
-0.000798772
0.000582305
-0.0011416
0.000817702
-0.0015556
0.00111015
-0.00203771
-0.00256699
0.00145387
0.000170356
0.000284585
-0.000637514
0.000438597
-0.000952784
0.000639758
-0.00134276
0.000897766
-0.00181361
0.00123187
-0.00237181
-0.00304667
0.00171154
0.000311234
-0.000761548
0.000477457
-0.00111901
0.000693243
-0.00155854
0.00096802
-0.00208838
0.0013169
-0.00272069
-0.00348846
0.00175869
0.000336794
0.000513889
-0.0012961
0.000741485
-0.00178614
0.00102687
-0.00237377
0.00137812
-0.00307194
-0.00390807
0.00179773
0.000547595
0.000784529
-0.00202307
0.00107655
-0.00266578
0.0014262
-0.0034216
-0.00431015
0.00182828
0.000822725
0.00111877
-0.00296183
0.00146526
-0.00376809
-0.00469769
0.00185281
0.00115441
0.00149666
-0.00411035
-0.0050725
0.00187148
0.00152074
-0.0054351
0.00188334
0.00188729
0.00153803
0.0044489
0.00543695
0.00188815
0.00152144
0.00411185
0.00507423
0.00188417
0.00115493
0.00296294
0.00149732
0.00376946
0.00469929
0.00187226
0.000823082
0.00202384
0.00111925
0.00266678
0.00146588
0.00342283
0.00431161
0.00185355
0.000547819
0.00129658
0.000784852
0.00178681
0.00107699
0.00237465
0.00142678
0.00307304
0.0039094
0.00182899
0.000336921
0.000761811
0.000514087
0.00111941
0.000741775
0.00155912
0.00102727
0.00208915
0.00137864
0.00272167
0.00348964
0.0017984
0.000311344
0.000637731
0.000477631
0.000953126
0.000693501
0.00134325
0.000968381
0.00181427
0.00131738
0.00237266
0.0030477
0.00175932
0.00017041
0.000310778
0.000284679
0.000523461
0.000438749
0.000799056
0.000639985
0.00114201
0.000898088
0.00155617
0.00123231
0.00203845
0.00256786
0.00171215
8.03359e-05
0.000109228
0.000153315
0.000237799
0.00025733
0.000419446
0.000398182
0.000658204
0.000582502
0.000957694
0.000817985
0.00132069
0.00111054
0.00174589
0.00222403
0.00145437
7.09427e-05
6.74755e-05
0.000136221
0.000172521
0.000229814
0.000325853
0.000357089
0.000530929
0.000523913
0.000790869
0.000736549
0.00110805
0.00100003
0.00148241
0.00190163
0.00132242
2.51515e-05
-1.22314e-05
6.17022e-05
3.09247e-05
0.000119359
0.000114864
0.000202612
0.0002426
0.000316459
0.000417082
0.000466332
0.000640996
0.000658203
0.000916181
0.000898714
0.0012419
0.00160395
0.00119639
2.12249e-05
-2.87021e-05
5.27011e-05
-5.51506e-07
0.000102914
6.46515e-05
0.000176077
0.000169437
0.000276894
0.000316265
0.00041056
0.00050733
0.000583018
0.000743723
0.000801466
0.00102346
0.0013315
0.00107392
3.80313e-06
-2.59938e-05
1.74355e-05
-4.23345e-05
4.40038e-05
-2.71198e-05
8.70176e-05
2.16376e-05
0.000150438
0.000106016
0.000238715
0.000227988
0.000356856
0.000389189
0.0005107
0.000589879
0.000707304
0.000826851
0.00108509
0.000953715
2.89271e-06
-2.88865e-05
1.38e-05
-5.32418e-05
3.56535e-05
-4.89733e-05
7.17545e-05
-1.44634e-05
0.000125829
5.19416e-05
0.000202088
0.000151729
0.000305327
0.00028595
0.000441147
0.000454059
0.000616067
0.00065193
0.000865292
0.000835863
2.02433e-06
-3.09109e-05
1.03281e-05
-6.15456e-05
2.7677e-05
-6.63221e-05
5.71759e-05
-4.39624e-05
0.000102327
6.79094e-06
0.000167096
8.69599e-05
0.00025602
0.000197026
0.00037433
0.000335749
0.000527797
0.000498463
0.000672141
0.000720947
1.19834e-06
-3.21092e-05
7.02556e-06
-6.73728e-05
2.0091e-05
-7.93875e-05
4.33131e-05
-6.71845e-05
7.99741e-05
-2.987e-05
0.000133786
3.31483e-05
0.000208972
0.000121839
0.000310297
0.000234425
0.000442716
0.000366044
0.000505161
0.000609697
4.15028e-07
-3.25242e-05
3.89644e-06
-7.08542e-05
1.29081e-05
-8.83992e-05
3.01904e-05
-8.44668e-05
5.88077e-05
-5.84874e-05
0.000102203
-1.02469e-05
0.000164249
5.97937e-05
0.000249187
0.000149486
0.000361183
0.000254048
0.000363486
0.000502858
-3.26295e-07
-3.21979e-05
9.45855e-07
-7.21263e-05
6.14229e-06
-9.35957e-05
1.78342e-05
-9.61587e-05
3.88703e-05
-7.95234e-05
7.24151e-05
-4.37917e-05
0.000121966
1.02429e-05
0.000191231
8.02219e-05
0.00028365
0.000161629
0.000245949
0.000401186
-1.02228e-06
-3.11757e-05
-1.81867e-06
-7.13299e-05
-1.86599e-07
-9.52277e-05
6.28046e-06
-0.000102626
2.0222e-05
-9.3465e-05
4.45211e-05
-6.80908e-05
8.22935e-05
-2.75296e-05
0.000136727
2.57886e-05
0.000210622
8.77333e-05
0.000151059
0.000305513
-1.67172e-06
-2.95039e-05
-4.3869e-06
-6.86148e-05
-6.05629e-06
-9.35583e-05
-4.42343e-06
-0.000104259
2.94377e-06
-0.000100832
1.86529e-05
-8.37999e-05
4.54476e-05
-5.43244e-05
8.60277e-05
-1.47915e-05
0.00014264
3.11213e-05
7.73004e-05
0.000216399
-2.27041e-06
-2.72335e-05
-6.74347e-06
-6.41417e-05
-1.14304e-05
-8.88713e-05
-1.42168e-05
-0.000101472
-1.28641e-05
-0.000102185
-5.02791e-06
-9.1636e-05
1.16826e-05
-7.10349e-05
3.95285e-05
-4.26374e-05
8.02707e-05
-9.62085e-06
2.28652e-05
0.000134706
-2.81332e-06
-2.44202e-05
-8.87059e-06
-5.80844e-05
-1.62711e-05
-8.14709e-05
-2.30289e-05
-9.47144e-05
-2.70847e-05
-9.81291e-05
-2.63387e-05
-9.23821e-05
-1.87239e-05
-7.86497e-05
-2.3911e-06
-5.89702e-05
2.41812e-05
-3.61931e-05
-1.41371e-05
6.11835e-05
-3.29469e-06
-2.11255e-05
-1.07481e-05
-5.0631e-05
-2.05345e-05
-7.16844e-05
-3.07821e-05
-8.44669e-05
-3.95922e-05
-8.93191e-05
-4.50839e-05
-8.68903e-05
-4.54736e-05
-7.82601e-05
-3.92325e-05
-6.52112e-05
-2.53811e-05
-5.00446e-05
-3.5304e-05
-4.21416e-06
-3.70831e-06
-1.74172e-05
-1.23547e-05
-4.19846e-05
-2.41757e-05
-5.98635e-05
-3.73968e-05
-7.12458e-05
-5.02584e-05
-7.64575e-05
-6.10687e-05
-7.608e-05
-6.82875e-05
-7.10412e-05
-7.06861e-05
-6.28127e-05
-6.7531e-05
-5.31997e-05
-4.43255e-05
-5.85095e-05
-4.04808e-06
-1.33691e-05
-1.36698e-05
-3.23628e-05
-2.71509e-05
-4.63824e-05
-4.27965e-05
-5.56002e-05
-5.89615e-05
-6.02925e-05
-7.41095e-05
-6.0932e-05
-8.68989e-05
-5.82518e-05
-9.63311e-05
-5.33804e-05
-0.000101872
-4.76588e-05
-4.26937e-05
-0.000103504
-4.30842e-06
-9.06072e-06
-1.46746e-05
-2.19967e-05
-2.94207e-05
-3.16362e-05
-4.69128e-05
-3.81081e-05
-6.55933e-05
-4.1612e-05
-8.40448e-05
-4.24805e-05
-0.000101077
-4.12199e-05
-0.000115863
-3.85943e-05
-0.000128031
-3.5491e-05
-3.29902e-05
-0.000137734
-4.48472e-06
-4.576e-06
-1.53536e-05
-1.11279e-05
-3.0953e-05
-1.60368e-05
-4.96898e-05
-1.93713e-05
-7.0066e-05
-2.12358e-05
-9.07446e-05
-2.18019e-05
-0.000110636
-2.13281e-05
-0.000129031
-2.02001e-05
-0.000145662
-1.88599e-05
-1.78515e-05
-0.0001608
-4.5737e-06
-1.56958e-05
-3.17249e-05
-5.10883e-05
-7.23181e-05
-9.41178e-05
-0.000115449
-0.000135659
-0.000154536
-0.00017241
-0.00017745
5.058e-06
-1.92382e-08
-0.000180292
2.86266e-06
-2.02882e-08
-0.000179556
-7.16175e-07
-1.95679e-08
-0.000174422
-5.11534e-06
-1.88121e-08
-0.000164071
-1.03351e-05
-1.61478e-08
-0.000147918
-1.61415e-05
-1.15698e-08
-0.000125541
-2.23716e-05
-4.85882e-09
-9.66457e-05
-2.88999e-05
4.24378e-09
-6.10325e-05
-3.56292e-05
1.59356e-08
-1.85749e-05
-4.24879e-05
3.03244e-08
3.08036e-05
-4.94259e-05
4.7397e-08
8.71439e-05
-5.64073e-05
6.69943e-08
0.000150461
-6.34056e-05
8.88036e-08
0.000220745
-7.03963e-05
1.12341e-07
0.00029796
-7.73528e-05
1.36957e-07
0.000382041
-8.42422e-05
1.61843e-07
0.000472878
-9.10229e-05
1.86054e-07
0.000570313
-9.76439e-05
2.08539e-07
0.000674129
-0.000104044
2.28178e-07
0.000784041
-0.000110156
2.4384e-07
0.000899688
-0.000115901
2.5443e-07
0.00102063
-0.000121202
2.58966e-07
0.00114635
-0.000125975
2.56635e-07
0.00127624
-0.000130139
2.46863e-07
0.00140963
-0.000133613
2.29382e-07
0.00154574
-0.000136319
2.04281e-07
0.00168375
-0.000138185
1.72044e-07
0.00182276
-0.000139137
1.33579e-07
0.00196178
-0.000139111
9.02014e-08
0.00209977
-0.000138035
4.35958e-08
0.00223563
-0.000135857
-4.26576e-09
0.00236818
-0.000132497
-5.12417e-08
0.00249623
-0.000127953
-9.51995e-08
0.00261846
-0.000122101
-1.34136e-07
0.00273377
-0.00011514
-1.66503e-07
0.0028407
-0.000106745
-1.91015e-07
0.0029387
-9.77878e-05
-2.0754e-07
0.00302597
-8.70576e-05
-2.15334e-07
0.0031037
-7.75129e-05
-2.16963e-07
0.00316848
-6.4564e-05
-2.09274e-07
0.00322634
-5.76575e-05
-2.03228e-07
-4.08465e-05
-1.78234e-07
-0.000165478
9.73205e-06
-0.000167897
5.28215e-06
-0.00016676
-1.8538e-06
-0.000161233
-1.06415e-05
-0.00015053
-2.10387e-05
-0.000134077
-3.25941e-05
-0.000111466
-4.49827e-05
-8.24096e-05
-5.79562e-05
-4.67156e-05
-7.13231e-05
-4.25997e-06
-8.49435e-05
4.50327e-05
-9.87186e-05
0.000101206
-0.000112581
0.000164278
-0.000126477
0.000234243
-0.000140362
0.000311072
-0.000154182
0.000394702
-0.000167872
0.000485032
-0.000181352
0.000581909
-0.000194521
0.000685121
-0.000207257
0.00079439
-0.000219425
0.000909363
-0.000230874
0.00102961
-0.000241446
0.00115461
-0.000250977
0.00128377
-0.000259304
0.00141643
-0.000266266
0.00155182
-0.000271709
0.00168912
-0.000275485
0.00182743
-0.00027745
0.00196579
-0.000277469
0.00210315
-0.000275401
0.00223843
-0.000271137
0.00237045
-0.000264515
0.00249802
-0.000255527
0.00261985
-0.000243925
0.00273481
-0.000230102
0.00284147
-0.000213407
0.00293926
-0.000195579
0.0030264
-0.000174195
0.00310406
-0.000155175
0.00316883
-0.000129334
0.00322674
-0.000115568
-8.19954e-05
-0.000141702
1.36938e-05
-0.000143294
6.87353e-06
-0.000141358
-3.78919e-06
-0.000135062
-1.69374e-05
-0.000123666
-3.24354e-05
-0.000106625
-4.96347e-05
-8.35554e-05
-6.80524e-05
-5.4188e-05
-8.73236e-05
-1.8342e-05
-0.000107169
2.41004e-05
-0.000127386
7.32154e-05
-0.000147834
0.00012905
-0.000168415
0.000191629
-0.000189056
0.000260957
-0.000209689
0.000337013
-0.000230238
0.000419746
-0.000250606
0.000509066
-0.000270673
0.000604833
-0.000290287
0.000706847
-0.000309271
0.000814842
-0.00032742
0.000928478
-0.00034451
0.00104734
-0.000360304
0.00117092
-0.000374558
0.00129864
-0.000387029
0.00142985
-0.000397475
0.00156381
-0.000405666
0.0016997
-0.000411378
0.00183665
-0.000414396
0.0019737
-0.000414518
0.00210983
-0.00041153
0.00224395
-0.000405266
0.00237492
-0.000395483
0.00250156
-0.000382165
0.00262257
-0.000364936
0.00273686
-0.000344385
0.00284297
-0.000319525
0.00294036
-0.000292969
0.00302724
-0.000261067
0.00310477
-0.000232707
0.00316953
-0.000194099
0.00322755
-0.000173581
-0.000123394
-0.000106458
1.66375e-05
-0.000106845
7.26023e-06
-0.000103734
-6.8994e-06
-9.63152e-05
-2.43566e-05
-8.39083e-05
-4.48424e-05
-6.60139e-05
-6.7529e-05
-4.22833e-05
-9.1783e-05
-1.24742e-05
-0.000117133
2.35748e-05
-0.000143218
6.59764e-05
-0.000169788
0.000114808
-0.000196665
0.000170122
-0.000223729
0.000231955
-0.000250889
0.000300324
-0.000278058
0.000375224
-0.000305138
0.000456621
-0.000332003
0.000544441
-0.000358493
0.000638562
-0.000384407
0.0007388
-0.00040951
0.000844911
-0.00043353
0.000956571
-0.00045617
0.00107338
-0.000477117
0.00119487
-0.000496045
0.00132047
-0.000512632
0.00144956
-0.000526557
0.0015814
-0.000537511
0.00171522
-0.0005452
0.00185016
-0.000549334
0.00198529
-0.000549643
0.0021196
-0.000545841
0.00225204
-0.000537706
0.00238146
-0.00052491
0.00250673
-0.000507429
0.00262655
-0.000484756
0.00273984
-0.000457672
0.00284516
-0.00042485
0.00294196
-0.000389772
0.00302845
-0.000347554
0.0031058
-0.000310053
0.00317056
-0.000258866
0.00322874
-0.000231754
-0.00016517
-6.02808e-05
1.8392e-05
-5.90479e-05
6.0273e-06
-5.44326e-05
-1.15147e-05
-4.55756e-05
-3.32137e-05
-3.18761e-05
-5.85419e-05
-1.2894e-05
-8.65111e-05
1.16662e-05
-0.000116343
4.20107e-05
-0.000147477
7.82867e-05
-0.000179494
0.000120596
-0.000212097
0.000169018
-0.000245086
0.000223615
-0.000278327
0.00028444
-0.000311714
0.000351528
-0.000345146
0.000424894
-0.000378505
0.000504526
-0.000411635
0.000590371
-0.000444338
0.000682329
-0.000476366
0.000780243
-0.000507424
0.000883889
-0.000537176
0.000992971
-0.000565253
0.00110712
-0.000591263
0.00122588
-0.000614805
0.00134872
-0.000635474
0.00147504
-0.000652873
0.00160414
-0.000666616
0.00173527
-0.000676333
0.0018676
-0.000681665
0.00200023
-0.000682272
0.00213219
-0.000677797
0.00226244
-0.000667958
0.00238987
-0.000652342
0.00251336
-0.000630917
0.00263164
-0.000603036
0.00274364
-0.000569674
0.00284795
-0.000529152
0.002944
-0.000485825
0.00303
-0.000433553
0.00310711
-0.00038717
0.0031719
-0.000323649
0.00323029
-0.000290151
-0.000207455
-3.04866e-06
1.72042e-05
-4.34275e-07
3.41292e-06
5.86058e-06
-1.78095e-05
1.64185e-05
-4.37716e-05
3.16436e-05
-7.37669e-05
5.18963e-05
-0.000106764
7.74115e-05
-0.000141859
0.000108353
-0.000178419
0.000144841
-0.000215982
0.000186972
-0.000254228
0.000234832
-0.000292946
0.000288498
-0.000331993
0.000348042
-0.000371258
0.000413524
-0.000410628
0.000484984
-0.000449964
0.000562434
-0.000489085
0.00064585
-0.000527754
0.000735159
-0.000565675
0.000830232
-0.000602496
0.000930873
-0.000637817
0.00103682
-0.000671198
0.00114773
-0.000702172
0.00126318
-0.000730257
0.00138268
-0.000754973
0.00150565
-0.000775843
0.00163144
-0.000792406
0.00175933
-0.00080422
0.00188851
-0.000810851
0.00201813
-0.000811893
0.00214725
-0.000806914
0.00227487
-0.000795575
0.0023999
-0.000777373
0.00252125
-0.000752267
0.00263768
-0.000719467
0.00274814
-0.000680137
0.00285122
-0.000632234
0.00294639
-0.000580987
0.00303181
-0.000518979
0.00310868
-0.000464033
0.0031735
-0.000388475
0.0032322
-0.000348845
-0.000250385
6.2886e-05
1.54661e-05
6.78678e-05
-1.56893e-06
7.62745e-05
-2.62162e-05
8.87771e-05
-5.62742e-05
0.000105726
-9.07157e-05
0.00012739
-0.000128428
0.000153932
-0.000168401
0.000185472
-0.000209959
0.000222109
-0.000252619
0.000263935
-0.000296055
0.000311048
-0.000340059
0.000363545
-0.00038449
0.000421524
-0.000429237
0.000485072
-0.000474176
0.00055426
-0.000519152
0.000629131
-0.000563956
0.00070969
-0.000608313
0.000795896
-0.000651881
0.000887653
-0.000694252
0.000984798
-0.000734962
0.0010871
-0.000773501
0.00119426
-0.000809328
0.00130588
-0.000841884
0.00142152
-0.000870611
0.00154063
-0.000894956
0.00166261
-0.000914381
0.00178676
-0.000928373
0.00191233
-0.000936423
0.0020385
-0.00093806
0.00216436
-0.000932774
0.00228896
-0.000920171
0.00241124
-0.000899655
0.00253014
-0.000871174
0.00264446
-0.000833786
0.00275317
-0.000788847
0.00285487
-0.000733931
0.00294903
-0.000675147
0.00303383
-0.000603774
0.00311042
-0.000540632
0.00317533
-0.000453384
0.00323441
-0.00040792
-0.0002941
0.000138542
1.15824e-05
0.000145234
-8.26097e-06
0.000155961
-3.69436e-05
0.000170566
-7.08796e-05
0.000189361
-0.00010951
0.000212503
-0.00015157
0.000240076
-0.000195974
0.000272154
-0.000242037
0.000308819
-0.000289283
0.000350166
-0.000337402
0.00039631
-0.000386203
0.000447375
-0.000435556
0.000503491
-0.000485352
0.000564776
-0.000535462
0.000631337
-0.000585713
0.000703249
-0.000635868
0.000780553
-0.000685617
0.000863242
-0.00073457
0.000951254
-0.000782265
0.00104446
-0.000828173
0.00114268
-0.000871718
0.00124564
-0.000912284
0.00135299
-0.000949239
0.00146433
-0.000981945
0.00157914
-0.00100977
0.00169688
-0.00103212
0.00181689
-0.00104838
0.00193845
-0.00105799
0.00206079
-0.0010604
0.00218305
-0.00105503
0.00230431
-0.00104143
0.00242355
-0.0010189
0.00253977
-0.000987387
0.00265176
-0.000945783
0.00275855
-0.000895636
0.00285874
-0.00083412
0.00295182
-0.000768227
0.00303595
-0.000687904
0.0031123
-0.000616981
0.00317735
-0.000518435
0.0032369
-0.000467472
-0.000338748
0.000222122
5.79424e-06
0.000231026
-1.71645e-05
0.000244002
-4.992e-05
0.000260788
-8.76659e-05
0.000281471
-0.000130192
0.000306077
-0.000176176
0.000334604
-0.000224502
0.000367086
-0.000274518
0.000403591
-0.000325788
0.00044423
-0.000378041
0.000489142
-0.000431115
0.000538487
-0.0004849
0.000592427
-0.000539292
0.000651121
-0.000594156
0.000714711
-0.000649303
0.00078331
-0.000704467
0.000856994
-0.000759301
0.000935795
-0.00081337
0.00101969
-0.000866157
0.00110859
-0.000917072
0.00120234
-0.000965469
0.00130072
-0.00101066
0.00140343
-0.00105195
0.00151009
-0.00108861
0.00162026
-0.00111995
0.00173342
-0.00114527
0.00184895
-0.00116391
0.0019662
-0.00117524
0.00208442
-0.00117862
0.00220281
-0.00117342
0.00232048
-0.0011591
0.00243648
-0.0011349
0.00254981
-0.00110072
0.00265933
-0.0010553
0.00276408
-0.00100038
0.00286268
-0.000932719
0.00295464
-0.000860185
0.0030381
-0.000771366
0.00311423
-0.000693116
0.0031795
-0.000583699
0.00323964
-0.00052761
-0.000384481
0.000313035
-1.81252e-06
0.000324161
-2.82903e-05
0.000339448
-6.52071e-05
0.000358416
-0.000106635
0.000380941
-0.000152717
0.000406904
-0.000202138
0.000436218
-0.000253816
0.000468882
-0.000307182
0.000504969
-0.000361875
0.000544612
-0.000417685
0.000587988
-0.000474491
0.000635294
-0.000532207
0.000686737
-0.000590734
0.000742514
-0.000649933
0.000802805
-0.000709594
0.000867764
-0.000769426
0.000937503
-0.000829041
0.00101209
-0.000887959
0.00109154
-0.000945609
0.00117581
-0.00100134
0.00126479
-0.00105445
0.0013583
-0.00110417
0.00145607
-0.00114972
0.00155779
-0.00119033
0.00166304
-0.0012252
0.00177136
-0.00125358
0.00188218
-0.00127474
0.00199489
-0.00128794
0.00210879
-0.00129252
0.00222311
-0.00128774
0.00233703
-0.00127303
0.00244963
-0.00124749
0.00255996
-0.00121105
0.00266691
-0.00116225
0.00276955
-0.00110303
0.00286652
-0.00102969
0.00295735
-0.000951015
0.00304017
-0.000854187
0.00311615
-0.000769096
0.00318172
-0.000649269
0.00324257
-0.000588458
-0.000431461
0.000410596
-1.13322e-05
0.000423792
-4.14865e-05
0.000441351
-8.27661e-05
0.000462424
-0.000127708
0.000486649
-0.000176942
0.000513754
-0.000229243
0.00054358
-0.000283642
0.000576112
-0.000339714
0.000611443
-0.000397206
0.000649744
-0.000455986
0.000691236
-0.000515983
0.000736164
-0.000577135
0.000784778
-0.000639348
0.000837318
-0.000702473
0.000894004
-0.00076628
0.000955027
-0.000830448
0.00102054
-0.000894551
0.00109064
-0.000958063
0.00116539
-0.00102036
0.00124479
-0.00108074
0.00132876
-0.00113842
0.00141716
-0.00119257
0.0015098
-0.00124236
0.00160637
-0.0012869
0.00170653
-0.00132536
0.00180983
-0.00135689
0.00191579
-0.00138069
0.00202381
-0.00139597
0.00213327
-0.00140197
0.00224342
-0.0013979
0.0023535
-0.00138311
0.00246262
-0.00135661
0.00256989
-0.00131832
0.00267423
-0.00126659
0.00277475
-0.00120354
0.0028701
-0.00112504
0.00295983
-0.00104075
0.00304207
-0.000936424
0.00311798
-0.000845006
0.00318397
-0.000715256
0.00324566
-0.000650153
-0.000479852
0.000513809
-2.24217e-05
0.000529067
-5.67448e-05
0.000548801
-0.0001025
0.00057181
-0.000150717
0.000597477
-0.000202609
0.000625385
-0.000257152
0.000655332
-0.000313589
0.000687316
-0.000371697
0.000721472
-0.000431362
0.000758026
-0.000492539
0.000797251
-0.000555208
0.000839442
-0.000619326
0.000884895
-0.000684801
0.000933892
-0.00075147
0.000986691
-0.000819079
0.00104352
-0.000887275
0.00110456
-0.000955594
0.00116996
-0.00102347
0.00123982
-0.00109022
0.00131416
-0.00115508
0.00139296
-0.00121722
0.00147612
-0.00127574
0.00156348
-0.00132972
0.0016548
-0.00137822
0.00174976
-0.00142032
0.00184798
-0.00145511
0.001949
-0.00148171
0.0020523
-0.00149926
0.00215726
-0.00150693
0.00226321
-0.00150385
0.00236943
-0.00148932
0.00247507
-0.00146225
0.00257928
-0.00142253
0.00268103
-0.00136834
0.00277946
-0.00130197
0.00287324
-0.00121882
0.00296195
-0.00112946
0.00304369
-0.00101816
0.00311964
-0.000920954
0.00318617
-0.000781786
0.00324886
-0.000712845
-0.000529829
0.000621985
-3.48797e-05
0.000639203
-7.39626e-05
0.000660948
-0.000124245
0.000685612
-0.000175381
0.000712321
-0.000229318
0.00074055
-0.00028538
0.000770097
-0.000343137
0.000801012
-0.000402613
0.000833499
-0.000463849
0.000867849
-0.000526888
0.000904394
-0.000591753
0.00094348
-0.000658413
0.000985447
-0.000726768
0.00103061
-0.000796637
0.00107927
-0.00086774
0.00113169
-0.00093969
0.00118808
-0.00101198
0.00124862
-0.00108401
0.00131345
-0.00115504
0.00138262
-0.00122426
0.00145617
-0.00129076
0.00153402
-0.00135359
0.00161606
-0.00141176
0.00170209
-0.00146425
0.00179185
-0.00151008
0.00188498
-0.00154825
0.00198108
-0.00157781
0.00207967
-0.00159784
0.00218017
-0.00160744
0.00228197
-0.00160565
0.00238438
-0.00159173
0.0024866
-0.00156447
0.00258783
-0.00152376
0.00268706
-0.00146757
0.00278349
-0.0013984
0.00287579
-0.00131113
0.00296358
-0.00121725
0.00304494
-0.00109953
0.00312106
-0.000997071
0.00318828
-0.000849007
0.00325214
-0.000776699
-0.00058157
0.00073439
-4.85291e-05
0.000753507
-9.30793e-05
0.000777022
-0.000147761
0.000802908
-0.000201266
0.000830084
-0.000256494
0.000857983
-0.00031328
0.000886474
-0.000371627
0.000915701
-0.000431841
0.000945957
-0.000494105
0.000977607
-0.000558538
0.00101104
-0.00062519
0.00104666
-0.000694028
0.00108483
-0.00076494
0.00112591
-0.000837717
0.00117022
-0.000912052
0.00121806
-0.000987523
0.00126966
-0.00106359
0.00132525
-0.00113959
0.00138497
-0.00121477
0.00144894
-0.00128823
0.00151721
-0.00135903
0.00158977
-0.00142614
0.00166652
-0.00148851
0.00174731
-0.00154505
0.00183193
-0.00159469
0.00192006
-0.00163638
0.00201133
-0.00166909
0.00210531
-0.00169181
0.00220147
-0.0017036
0.00229923
-0.00170341
0.00239794
-0.00169045
0.00249686
-0.0016634
0.00259523
-0.00162213
0.00269208
-0.00156442
0.00278663
-0.00149295
0.00287759
-0.0014021
0.0029646
-0.00130425
0.00304573
-0.00118066
0.00312217
-0.00107351
0.00319024
-0.000917079
0.00325543
-0.000841891
-0.000635258
0.000850375
-6.32879e-05
0.000871412
-0.000114116
0.00089634
-0.000172689
0.000922805
-0.000227731
0.000949652
-0.000283341
0.000976387
-0.000340015
0.00100303
-0.000398269
0.00102986
-0.000458672
0.00105727
-0.000521519
0.00108571
-0.000586974
0.00111561
-0.000655091
0.00114741
-0.000725825
0.00118151
-0.000799037
0.00121828
-0.000874493
0.00125808
-0.000951852
0.00130122
-0.00103066
0.00134796
-0.00111034
0.00139855
-0.00119018
0.00145318
-0.00126939
0.00151198
-0.00134703
0.00157503
-0.00142208
0.00164236
-0.00149347
0.00171393
-0.00156007
0.00178961
-0.00162073
0.00186922
-0.0016743
0.0019525
-0.00171965
0.00203911
-0.0017557
0.00212865
-0.00178135
0.00222064
-0.00179559
0.00231454
-0.00179731
0.00240974
-0.00178565
0.00250554
-0.0017592
0.00260122
-0.00171781
0.00269585
-0.00165905
0.0027887
-0.0015858
0.00287849
-0.00149189
0.00296489
-0.00139064
0.00304596
-0.00126173
0.00312289
-0.00115045
0.00319199
-0.000986181
0.00325871
-0.00090861
-0.000691084
0.000969462
-7.93259e-05
0.000992542
-0.000137196
0.00101831
-0.000198461
0.0010444
-0.000253822
0.00106985
-0.000308786
0.00109439
-0.000364555
0.00111827
-0.000422151
0.00114194
-0.000482337
0.00116588
-0.00054546
0.00119059
-0.000611686
0.00121655
-0.000681054
0.00124422
-0.000753491
0.00127401
-0.000828828
0.00130632
-0.000906799
0.0013415
-0.000987031
0.00137988
-0.00106904
0.00142175
-0.00115221
0.00146738
-0.00123581
0.00151696
-0.00131898
0.00157068
-0.00140075
0.00162865
-0.00148005
0.00169091
-0.00155574
0.00175746
-0.00162662
0.00182822
-0.00169149
0.00190303
-0.00174911
0.00198167
-0.00179829
0.00206385
-0.00183787
0.00214918
-0.00186668
0.00223723
-0.00188365
0.00232751
-0.00188758
0.00241943
-0.00187758
0.00251234
-0.0018521
0.00260556
-0.00181103
0.00269819
-0.00175168
0.00278954
-0.00167715
0.00287837
-0.00158071
0.00296434
-0.00147662
0.00304555
-0.00134293
0.00312317
-0.00122807
0.00319349
-0.0010565
0.00326194
-0.000977054
-0.000749238
0.00109149
-9.72319e-05
0.00111671
-0.000162417
0.00114236
-0.000224114
0.0011667
-0.000278162
0.00118936
-0.00033145
0.0012105
-0.000385695
0.00123064
-0.000442284
0.00125035
-0.000502049
0.0012702
-0.000565313
0.00129072
-0.000632205
0.00131239
-0.000702727
0.00133568
-0.000776772
0.00136098
-0.000854138
0.00138871
-0.000934529
0.00141923
-0.00101754
0.00145286
-0.00110267
0.00148992
-0.00118926
0.00153067
-0.00127656
0.00157535
-0.00136366
0.00162415
-0.00144955
0.00167721
-0.00153311
0.00173461
-0.00161314
0.00179638
-0.00168839
0.00186247
-0.00175757
0.00193275
-0.00181939
0.00200702
-0.00187257
0.00208504
-0.00191588
0.00216645
-0.00194809
0.00225086
-0.00196806
0.00233779
-0.00197451
0.00242672
-0.0019665
0.002517
-0.00194239
0.00260802
-0.00190204
0.0026989
-0.00184256
0.002789
-0.00176725
0.00287709
-0.0016688
0.00296287
-0.00156241
0.00304442
-0.00142448
0.00312294
-0.00130659
0.00319468
-0.00112824
0.00326506
-0.00104743
-0.000809917
0.00121664
-0.000117865
0.00124386
-0.00018964
0.00126784
-0.000248092
0.00128851
-0.000298829
0.00130669
-0.000349633
0.0013231
-0.000402105
0.00133848
-0.000457662
0.00135348
-0.000517057
0.0013687
-0.000580524
0.00138462
-0.000648129
0.00140172
-0.000719827
0.00142043
-0.00079548
0.00144115
-0.000874859
0.00146426
-0.000957644
0.00149013
-0.00104341
0.00151908
-0.00113162
0.00155143
-0.00122161
0.00158746
-0.00131259
0.00162742
-0.00140362
0.00167152
-0.00149365
0.00171993
-0.00158152
0.00177275
-0.00166596
0.00183002
-0.00174567
0.00189174
-0.00181929
0.0019578
-0.00188545
0.00202805
-0.00194282
0.00210224
-0.00199008
0.00218007
-0.00202592
0.00226116
-0.00204916
0.00234508
-0.00205843
0.00243133
-0.00205275
0.0025193
-0.00203037
0.00260841
-0.00199115
0.00269784
-0.00193198
0.00278695
-0.00185637
0.00287456
-0.00175641
0.00296039
-0.00164824
0.00304253
-0.00150661
0.00312216
-0.00138622