/*--------------------------------*- C++ -*----------------------------------*\
  =========                 |
  \\      /  F ield         | OpenFOAM: The Open Source CFD Toolbox
   \\    /   O peration     | Website:  https://openfoam.org
    \\  /    A nd           | Version:  7
     \\/     M anipulation  |
\*---------------------------------------------------------------------------*/
FoamFile
{
    version     2.0;
    format      ascii;
    class       volScalarField;
    location    "15";
    object      p;
}
// * * * * * * * * * * * * * * * * * * * * * * * * * * * * * * * * * * * * * //

dimensions      [0 2 -2 0 0 0 0];

internalField   nonuniform List<scalar> 
6386
(
-0.29244
-0.294766
-0.297289
-0.300051
-0.29932
-0.303105
-0.302037
-0.306502
-0.305036
-0.302707
-0.310292
-0.308368
-0.305594
-0.302166
-0.314538
-0.312076
-0.308814
-0.304875
-0.319296
-0.31621
-0.312417
-0.307936
-0.303266
-0.324622
-0.320817
-0.31645
-0.3114
-0.306172
-0.300977
-0.330561
-0.325942
-0.320962
-0.315313
-0.309482
-0.303595
-0.297214
-0.337156
-0.331625
-0.325998
-0.319716
-0.313218
-0.306525
-0.299135
-0.290921
-0.344434
-0.3379
-0.331594
-0.32464
-0.317387
-0.309742
-0.30113
-0.29129
-0.27882
-0.352414
-0.344793
-0.33778
-0.330099
-0.321974
-0.313195
-0.303113
-0.291453
-0.277413
-0.263703
-0.361094
-0.352316
-0.344569
-0.336089
-0.326943
-0.316801
-0.304974
-0.291324
-0.275626
-0.260355
-0.370457
-0.360466
-0.351957
-0.342577
-0.332226
-0.320443
-0.306594
-0.290824
-0.273442
-0.256717
-0.380456
-0.369216
-0.359908
-0.349504
-0.337715
-0.323972
-0.307853
-0.289884
-0.270834
-0.252741
-0.39102
-0.378514
-0.368358
-0.356772
-0.343261
-0.327226
-0.308634
-0.288439
-0.267769
-0.248377
-0.402043
-0.388274
-0.377203
-0.364243
-0.348675
-0.330033
-0.308829
-0.286425
-0.264205
-0.243578
-0.413383
-0.398373
-0.386301
-0.37173
-0.353744
-0.332225
-0.308335
-0.283782
-0.260096
-0.238295
-0.424862
-0.408649
-0.395468
-0.379005
-0.358236
-0.333638
-0.307052
-0.280444
-0.255387
-0.232478
-0.436263
-0.4189
-0.404478
-0.385804
-0.36192
-0.334119
-0.304888
-0.276346
-0.250025
-0.226081
-0.447331
-0.428884
-0.413062
-0.391838
-0.36457
-0.333524
-0.301749
-0.271421
-0.243949
-0.219057
-0.45778
-0.438325
-0.42092
-0.396812
-0.36597
-0.331717
-0.29755
-0.265601
-0.237102
-0.211366
-0.467296
-0.446917
-0.427724
-0.400431
-0.365921
-0.328576
-0.292204
-0.258818
-0.229427
-0.20297
-0.475545
-0.454332
-0.433135
-0.402417
-0.364241
-0.323986
-0.285634
-0.251009
-0.220872
-0.193831
-0.482183
-0.460229
-0.436813
-0.402513
-0.36077
-0.317846
-0.277765
-0.242113
-0.21139
-0.183922
-0.486863
-0.464262
-0.438436
-0.400488
-0.35537
-0.310068
-0.268529
-0.232075
-0.200942
-0.173227
-0.48925
-0.466094
-0.437704
-0.396145
-0.347923
-0.300575
-0.257867
-0.220843
-0.189496
-0.16173
-0.489025
-0.465404
-0.434357
-0.389322
-0.338338
-0.289307
-0.245731
-0.208372
-0.177007
-0.149364
-0.485902
-0.461901
-0.428176
-0.379895
-0.326549
-0.276223
-0.232091
-0.194637
-0.16342
-0.135946
-0.479625
-0.455332
-0.418991
-0.367777
-0.312516
-0.2613
-0.216932
-0.179633
-0.148707
-0.121243
-0.469989
-0.445497
-0.406677
-0.352921
-0.296224
-0.244532
-0.200251
-0.163374
-0.132933
-0.105343
-0.456833
-0.432246
-0.391158
-0.335314
-0.277679
-0.225922
-0.182048
-0.145879
-0.11614
-0.08907
-0.440051
-0.415487
-0.372405
-0.314978
-0.256915
-0.205494
-0.162374
-0.127249
-0.0982215
-0.0722794
-0.419595
-0.395183
-0.350438
-0.291976
-0.23399
-0.183313
-0.141368
-0.107423
-0.0793362
-0.0548021
-0.395468
-0.371354
-0.325327
-0.266406
-0.208995
-0.159512
-0.118995
-0.0864759
-0.0595837
-0.0366307
-0.367732
-0.344085
-0.297219
-0.238363
-0.182019
-0.134135
-0.0953459
-0.0644924
-0.0390362
-0.0178469
-0.336499
-0.313532
-0.266342
-0.207884
-0.15318
-0.107281
-0.0705215
-0.041563
-0.0177662
0.00144255
-0.301944
-0.279914
-0.232805
-0.175117
-0.122621
-0.0790832
-0.0446373
-0.0177841
0.0041519
0.0211548
-0.264294
-0.243487
-0.196219
-0.140673
-0.0905595
-0.0496894
-0.0178195
0.00674284
0.0266327
0.0411865
-0.223764
-0.204436
-0.157288
-0.10448
-0.0571892
-0.0192622
0.00980752
0.0319227
0.049523
0.0611497
-0.180583
-0.162568
-0.116933
-0.0667983
-0.0226932
0.0120369
0.0381413
0.057685
0.072542
0.0801872
-0.135154
-0.118651
-0.0750871
-0.0279068
0.0127221
0.0440467
0.0670906
0.0839593
0.095423
0.0978411
-0.0879174
-0.0729921
-0.0319418
0.0119214
0.0488287
0.0765891
0.0965076
0.110548
0.118208
0.116162
-0.0391697
-0.0260273
0.0121971
0.05241
0.0853883
0.10946
0.126144
0.137059
0.140906
0.139985
0.0106794
0.021843
0.0569822
0.0932724
0.122157
0.142437
0.155734
0.16332
0.164145
0.163923
0.0611995
0.0702238
0.102054
0.134213
0.158884
0.175295
0.185107
0.189397
0.187635
0.186541
0.111957
0.118715
0.147053
0.174931
0.195313
0.207809
0.214089
0.215158
0.210952
0.20822
0.162515
0.166912
0.191619
0.215126
0.231188
0.23976
0.242511
0.24043
0.233773
0.228973
0.212438
0.214414
0.235398
0.2545
0.266257
0.270934
0.270197
0.265038
0.25592
0.248854
0.261297
0.260821
0.278046
0.292759
0.300272
0.301122
0.296969
0.28881
0.277248
0.267833
0.308672
0.305748
0.319225
0.329621
0.332991
0.330118
0.322651
0.31159
0.297636
0.285855
0.354157
0.348819
0.358612
0.364811
0.364183
0.357727
0.347074
0.333232
0.316967
0.30285
0.397361
0.389678
0.395899
0.398069
0.393626
0.383758
0.370078
0.353597
0.33513
0.31874
0.437915
0.427985
0.430794
0.429149
0.421112
0.408035
0.39151
0.372556
0.352018
0.333448
0.475474
0.463425
0.463027
0.45782
0.446444
0.43039
0.411228
0.389988
0.367529
0.346903
0.509719
0.495707
0.492348
0.483873
0.469443
0.45067
0.429103
0.40578
0.381568
0.359034
0.540358
0.524566
0.518529
0.507113
0.489945
0.468737
0.445015
0.419832
0.394048
0.369782
0.567133
0.549767
0.541367
0.527371
0.507806
0.484465
0.45886
0.432053
0.404893
0.379092
0.589815
0.571102
0.560688
0.544497
0.522898
0.497749
0.470546
0.442364
0.414037
0.386918
0.608212
0.588398
0.57634
0.558364
0.535114
0.508497
0.479996
0.450699
0.421421
0.393222
0.622168
0.601512
0.588203
0.568871
0.544367
0.516636
0.48715
0.457005
0.427003
0.39797
0.631562
0.610337
0.596183
0.575937
0.550589
0.522108
0.491958
0.461242
0.430752
0.401156
0.636314
0.614798
0.600217
0.579509
0.553734
0.524873
0.494388
0.463384
0.432654
0.402793
0.63638
0.614857
0.600271
0.579556
0.553775
0.524908
0.494417
0.463409
0.432677
0.402827
0.631758
0.610512
0.596343
0.576077
0.550709
0.522208
0.492039
0.461305
0.430801
0.401196
0.622485
0.601796
0.58846
0.569095
0.544556
0.516791
0.48727
0.457092
0.42706
0.398
0.608636
0.588778
0.576682
0.55866
0.53536
0.508694
0.480143
0.450798
0.421479
0.39324
0.59033
0.571564
0.561101
0.54485
0.523187
0.497974
0.470707
0.442467
0.414088
0.386926
0.567718
0.550292
0.541835
0.527766
0.508124
0.484706
0.459027
0.432154
0.404938
0.37909
0.540994
0.525138
0.519035
0.507536
0.49028
0.468985
0.445183
0.41993
0.394087
0.369773
0.510385
0.496307
0.492877
0.484311
0.469785
0.45092
0.429268
0.405873
0.381602
0.359021
0.476151
0.464037
0.463566
0.458263
0.446786
0.430636
0.411389
0.390077
0.367561
0.346887
0.438585
0.428593
0.43133
0.429587
0.421447
0.408275
0.391665
0.372643
0.352051
0.333433
0.398009
0.39027
0.396421
0.398495
0.393951
0.38399
0.370229
0.353683
0.335164
0.318726
0.354771
0.349384
0.359112
0.36522
0.364495
0.357949
0.347221
0.333318
0.317004
0.302838
0.309244
0.306277
0.319697
0.330008
0.333287
0.330332
0.322794
0.311678
0.297676
0.285845
0.261818
0.261309
0.278484
0.293121
0.300551
0.301326
0.297109
0.2889
0.277292
0.267823
0.212904
0.214854
0.2358
0.254835
0.266519
0.271129
0.270334
0.26513
0.255969
0.248844
0.162923
0.167304
0.191981
0.215434
0.231433
0.239946
0.242646
0.240526
0.233829
0.228962
0.112306
0.119056
0.147375
0.17521
0.195539
0.207986
0.214221
0.215257
0.21102
0.208212
0.0614917
0.0705145
0.102337
0.134464
0.159093
0.175464
0.185237
0.189499
0.18772
0.186549
0.010916
0.0220844
0.0572256
0.0934953
0.122349
0.142597
0.155862
0.163425
0.164253
0.163978
-0.0389858
-0.0258331
0.0124025
0.0526058
0.0855638
0.109612
0.126272
0.137165
0.141036
0.140158
-0.0877828
-0.0728429
-0.0317727
0.0120909
0.0489875
0.076734
0.0966362
0.11066
0.118355
0.116479
-0.135064
-0.118543
-0.0749522
-0.0277627
0.0128643
0.0441829
0.067219
0.0840769
0.0955654
0.0981187
-0.180535
-0.162499
-0.11683
-0.0666787
-0.0225678
0.0121627
0.0382652
0.0578016
0.0726659
0.0803798
-0.223753
-0.204404
-0.157215
-0.104385
-0.0570806
-0.0191483
0.0099226
0.032032
0.0496298
0.061289
-0.264315
-0.243485
-0.196177
-0.1406
-0.0904677
-0.0495884
-0.0177152
0.0068428
0.0267274
0.0412996
-0.301993
-0.279939
-0.232789
-0.175066
-0.122545
-0.0789953
-0.0445442
-0.0176936
0.00423706
0.0212511
-0.336573
-0.313582
-0.266349
-0.207852
-0.15312
-0.107206
-0.0704396
-0.0414819
-0.0176898
0.0015248
-0.367827
-0.344156
-0.297248
-0.238349
-0.181975
-0.134072
-0.0952748
-0.0644205
-0.0389683
-0.0177759
-0.395581
-0.371443
-0.325373
-0.266408
-0.208965
-0.159461
-0.118934
-0.086413
-0.0595234
-0.0365682
-0.419721
-0.395286
-0.350501
-0.291994
-0.233974
-0.183274
-0.141318
-0.107368
-0.0792828
-0.0547462
-0.440189
-0.415602
-0.372482
-0.31501
-0.256911
-0.205466
-0.162333
-0.127202
-0.0981743
-0.072229
-0.456978
-0.43237
-0.391246
-0.335358
-0.277686
-0.225904
-0.182016
-0.14584
-0.116099
-0.0890245
-0.47014
-0.445628
-0.406775
-0.352976
-0.296241
-0.244523
-0.200226
-0.163341
-0.132897
-0.105302
-0.47978
-0.455468
-0.419095
-0.367841
-0.312543
-0.2613
-0.216916
-0.179607
-0.148675
-0.121207
-0.486057
-0.462039
-0.428286
-0.379966
-0.326584
-0.27623
-0.232081
-0.194616
-0.163393
-0.135914
-0.48918
-0.465542
-0.43447
-0.389399
-0.33838
-0.289321
-0.245728
-0.208357
-0.176985
-0.149336
-0.489401
-0.466231
-0.437818
-0.396226
-0.34797
-0.300595
-0.257869
-0.220832
-0.189478
-0.161706
-0.48701
-0.464397
-0.43855
-0.400572
-0.355422
-0.310094
-0.268536
-0.232069
-0.200928
-0.173206
-0.482325
-0.460359
-0.436926
-0.402599
-0.360827
-0.317878
-0.277777
-0.242112
-0.211379
-0.183905
-0.475682
-0.454458
-0.433246
-0.402505
-0.364301
-0.324021
-0.28565
-0.251012
-0.220865
-0.193817
-0.467426
-0.447037
-0.427832
-0.400518
-0.365983
-0.328615
-0.292224
-0.258825
-0.229424
-0.202959
-0.457904
-0.438439
-0.421023
-0.396898
-0.366034
-0.331759
-0.297573
-0.265611
-0.237102
-0.211358
-0.447448
-0.428992
-0.413161
-0.391922
-0.364635
-0.333568
-0.301776
-0.271434
-0.243952
-0.219053
-0.436372
-0.419002
-0.404571
-0.385885
-0.361985
-0.334166
-0.304918
-0.276363
-0.250031
-0.226079
-0.424965
-0.408745
-0.395557
-0.379083
-0.3583
-0.333686
-0.307085
-0.280463
-0.255397
-0.232479
-0.413479
-0.398463
-0.386385
-0.371805
-0.353807
-0.332274
-0.30837
-0.283804
-0.260108
-0.238299
-0.402133
-0.388358
-0.377282
-0.364314
-0.348738
-0.330083
-0.308867
-0.286451
-0.26422
-0.243585
-0.391104
-0.378593
-0.368432
-0.356841
-0.343321
-0.327276
-0.308673
-0.288467
-0.267787
-0.248387
-0.380535
-0.369291
-0.359979
-0.34957
-0.337774
-0.324023
-0.307893
-0.289915
-0.270855
-0.252754
-0.370531
-0.360536
-0.352023
-0.34264
-0.332283
-0.320493
-0.306636
-0.290857
-0.273466
-0.256733
-0.361164
-0.352383
-0.344633
-0.336148
-0.326998
-0.316851
-0.305017
-0.291359
-0.275653
-0.260373
-0.352479
-0.344856
-0.33784
-0.330156
-0.322027
-0.313244
-0.303157
-0.29149
-0.277443
-0.263725
-0.344496
-0.33796
-0.331651
-0.324695
-0.317439
-0.309791
-0.301175
-0.291329
-0.337215
-0.331682
-0.326053
-0.319769
-0.313269
-0.306574
-0.29918
-0.290962
-0.330618
-0.325997
-0.321016
-0.315364
-0.309531
-0.303643
-0.29726
-0.324676
-0.32087
-0.316502
-0.311449
-0.30622
-0.301025
-0.319349
-0.316261
-0.312467
-0.307984
-0.303314
-0.314588
-0.312126
-0.308863
-0.304922
-0.310341
-0.308416
-0.305642
-0.302212
-0.30655
-0.305084
-0.302754
-0.303152
-0.302083
-0.300097
-0.299365
-0.297332
-0.294808
-0.183327
-0.191702
-0.199521
-0.206806
-0.213581
-0.219871
-0.225701
-0.231094
-0.236072
-0.240656
-0.244868
-0.168675
-0.176699
-0.184283
-0.191449
-0.198219
-0.204615
-0.210658
-0.21637
-0.221775
-0.2269
-0.231786
-0.15554
-0.163174
-0.170464
-0.177435
-0.184112
-0.190518
-0.196678
-0.202618
-0.20837
-0.213974
-0.219472
-0.143836
-0.151093
-0.158092
-0.164855
-0.171403
-0.177758
-0.183943
-0.189981
-0.195896
-0.201715
-0.207448
-0.133436
-0.140323
-0.147017
-0.153533
-0.159889
-0.166101
-0.172185
-0.178156
-0.184021
-0.189792
-0.195461
-0.124137
-0.130653
-0.13702
-0.14325
-0.149357
-0.155352
-0.161246
-0.167047
-0.172761
-0.178402
-0.183971
-0.115773
-0.121917
-0.127947
-0.133871
-0.139701
-0.145444
-0.151111
-0.156712
-0.162256
-0.167759
-0.173226
-0.108234
-0.114012
-0.119702
-0.125313
-0.130853
-0.136331
-0.141754
-0.147133
-0.152475
-0.15779
-0.163077
-0.101418
-0.10684
-0.112196
-0.117493
-0.122737
-0.127936
-0.133097
-0.138226
-0.143328
-0.148408
-0.153467
-0.095225
-0.100306
-0.105336
-0.110323
-0.115271
-0.120186
-0.125073
-0.129939
-0.134787
-0.139623
-0.144453
-0.0895804
-0.0943351
-0.0990517
-0.103735
-0.108391
-0.113024
-0.117638
-0.122239
-0.126832
-0.131422
-0.136013
-0.0844188
-0.0888637
-0.0932788
-0.09767
-0.102042
-0.106398
-0.110743
-0.115081
-0.119416
-0.123753
-0.128093
-0.079694
-0.0838427
-0.0879688
-0.092078
-0.0961742
-0.100261
-0.104341
-0.108418
-0.112497
-0.11658
-0.120671
-0.0753554
-0.0792221
-0.0830725
-0.0869114
-0.0907421
-0.0945672
-0.09839
-0.102213
-0.106041
-0.109875
-0.11372
-0.071351
-0.0749515
-0.078541
-0.082123
-0.0857001
-0.0892748
-0.0928498
-0.0964276
-0.100011
-0.103603
-0.107206
-0.0676492
-0.0709983
-0.0743407
-0.0776786
-0.0810141
-0.0843492
-0.0876863
-0.0910278
-0.094376
-0.0977331
-0.101102
-0.064213
-0.0673264
-0.070436
-0.0735431
-0.0766494
-0.0797567
-0.0828671
-0.0859825
-0.0891049
-0.0922364
-0.095379
-0.0610077
-0.0639032
-0.0667946
-0.0696844
-0.0725744
-0.0754662
-0.0783615
-0.081262
-0.0841692
-0.087085
-0.0900112
-0.0580209
-0.0607108
-0.0633968
-0.0660815
-0.0687671
-0.0714549
-0.0741463
-0.0768425
-0.0795451
-0.0822555
-0.0849752
-0.0552353
-0.05773
-0.060222
-0.0627135
-0.0652062
-0.0677012
-0.0701995
-0.0727023
-0.0752108
-0.0777262
-0.0802498
-0.0526252
-0.054937
-0.0572473
-0.0595576
-0.0618691
-0.0641827
-0.0664992
-0.0688196
-0.0711449
-0.0734761
-0.0758142
-0.0501749
-0.0523163
-0.0544568
-0.0565974
-0.0587391
-0.0608824
-0.0630282
-0.065177
-0.0673298
-0.0694874
-0.0716506
-0.0738202
-0.0478719
-0.0498545
-0.0518364
-0.0538184
-0.055801
-0.0577849
-0.0597705
-0.0617585
-0.0637494
-0.0657439
-0.0677427
-0.0697464
-0.0457048
-0.0475394
-0.0493734
-0.0512073
-0.0530415
-0.0548763
-0.0567122
-0.0585496
-0.060389
-0.0622308
-0.0640756
-0.065924
-0.0436648
-0.0453617
-0.0470579
-0.0487538
-0.0504496
-0.0521455
-0.0538417
-0.0555385
-0.0572364
-0.0589356
-0.0606366
-0.0623397
-0.0417436
-0.0433128
-0.0448811
-0.0464488
-0.0480159
-0.0495825
-0.0511487
-0.0527147
-0.0542808
-0.0558472
-0.0574142
-0.0589821
-0.0399324
-0.0413841
-0.0428345
-0.0442835
-0.0457314
-0.047178
-0.0486236
-0.0500683
-0.0515121
-0.0529553
-0.0543979
-0.0558403
-0.0382294
-0.0395727
-0.0409141
-0.0422533
-0.0435907
-0.0449263
-0.0462603
-0.0475925
-0.0489231
-0.0502521
-0.0515797
-0.0529058
-0.036634
-0.0378762
-0.0391162
-0.0403538
-0.0415892
-0.0428222
-0.044053
-0.0452814
-0.0465073
-0.0477309
-0.0489522
-0.050171
-0.0351407
-0.0362898
-0.0374364
-0.0385805
-0.0397219
-0.0408606
-0.0419964
-0.0431292
-0.0442589
-0.0453855
-0.046509
-0.0476293
-0.0337465
-0.0348105
-0.0358718
-0.0369302
-0.0379856
-0.0390378
-0.0400865
-0.0411318
-0.0421733
-0.0432112
-0.0442452
-0.0452752
-0.0324512
-0.0334376
-0.0344211
-0.0354014
-0.0363782
-0.0373514
-0.0383208
-0.0392862
-0.0402474
-0.0412043
-0.0421567
-0.0431046
-0.0312546
-0.0321707
-0.0330836
-0.0339929
-0.0348985
-0.0358001
-0.0366974
-0.0375904
-0.0384787
-0.0393622
-0.0402408
-0.0411143
-0.0301577
-0.0310103
-0.0318595
-0.0327049
-0.0335462
-0.0343832
-0.0352157
-0.0360434
-0.0368662
-0.0376837
-0.0384958
-0.0393024
-0.0291619
-0.0299578
-0.03075
-0.0315382
-0.0323221
-0.0331015
-0.0338761
-0.0346455
-0.0354097
-0.0361684
-0.0369213
-0.0376684
-0.0282698
-0.0290155
-0.0297573
-0.030495
-0.0312282
-0.0319566
-0.03268
-0.0333981
-0.0341106
-0.0348174
-0.0355182
-0.0362129
-0.0274845
-0.0281865
-0.0288844
-0.0295781
-0.0302671
-0.0309512
-0.0316301
-0.0323035
-0.0329713
-0.0336331
-0.0342887
-0.034938
-0.0268107
-0.0274754
-0.028136
-0.0287921
-0.0294435
-0.0300899
-0.030731
-0.0313666
-0.0319963
-0.03262
-0.0332374
-0.0338483
-0.0262532
-0.026887
-0.0275166
-0.0281417
-0.0287621
-0.0293773
-0.0299873
-0.0305917
-0.0311902
-0.0317827
-0.0323689
-0.0329485
-0.0258215
-0.0264311
-0.0270364
-0.0276371
-0.0282331
-0.028824
-0.0294095
-0.0299895
-0.0305637
-0.0311319
-0.0316938
-0.0322493
-0.0255181
-0.0261103
-0.0266983
-0.0272818
-0.0278606
-0.0284344
-0.029003
-0.0295662
-0.0301237
-0.0306753
-0.0312208
-0.03176
-0.0253672
-0.0259482
-0.026525
-0.0270973
-0.0276649
-0.0282277
-0.0287854
-0.0293378
-0.0298849
-0.0304263
-0.030962
-0.0314917
0.108302
0.0899299
0.0728817
0.0561269
0.0384049
0.0203973
0.00278775
-0.0143462
-0.0310488
-0.0472696
-0.0629499
-0.0780641
-0.0925961
-0.106355
-0.119794
-0.13229
-0.14383
-0.154629
-0.164801
-0.174366
0.0990591
0.0812573
0.0629618
0.0468273
0.0307506
0.0143179
-0.00173168
-0.0171466
-0.0320537
-0.0465048
-0.0604471
-0.0738018
-0.0864768
-0.0983683
-0.110162
-0.121375
-0.131885
-0.141806
-0.151233
-0.160189
0.0881501
0.0715055
0.0535033
0.0383506
0.024194
0.00973083
-0.00459501
-0.0183374
-0.031546
-0.0443362
-0.0566963
-0.0685742
-0.0799419
-0.0908111
-0.101209
-0.111403
-0.121148
-0.130379
-0.139159
-0.147539
0.0767971
0.0616559
0.0448835
0.0309301
0.0184248
0.005737
-0.00702321
-0.0193397
-0.0311354
-0.0425355
-0.0535808
-0.0642403
-0.0744805
-0.0842804
-0.0935949
-0.102831
-0.111779
-0.120317
-0.128472
-0.136302
0.0661647
0.0526092
0.0373733
0.02466
0.013526
0.00234931
-0.00900043
-0.0200468
-0.0306196
-0.0408129
-0.0506979
-0.060264
-0.0694807
-0.0783418
-0.0868655
-0.0953417
-0.10356
-0.11144
-0.119016
-0.126339
0.0566062
0.0444922
0.0308076
0.0192981
0.00932361
-0.000582185
-0.010684
-0.0205924
-0.030097
-0.039251
-0.0481353
-0.0567595
-0.0650984
-0.0731431
-0.0809232
-0.0887039
-0.0962672
-0.103558
-0.110608
-0.11746
0.0480939
0.0372379
0.0250235
0.0146647
0.00570499
-0.00312128
-0.0121296
-0.021021
-0.0295841
-0.0378394
-0.0458661
-0.0536941
-0.061322
-0.0687458
-0.0759587
-0.0828436
-0.089719
-0.0964906
-0.103083
-0.109502
0.0405325
0.0307847
0.0199211
0.0106381
0.00258077
-0.00531991
-0.0133772
-0.0213661
-0.0290945
-0.0365604
-0.0438294
-0.050934
-0.0578712
-0.0646285
-0.0711979
-0.0775764
-0.0839361
-0.0902162
-0.0963572
-0.102355
0.0338353
0.0250753
0.0154282
0.00712726
-0.000126045
-0.00722592
-0.014457
-0.0216486
-0.0286351
-0.0354025
-0.042002
-0.0484654
-0.0547949
-0.0609831
-0.06703
-0.0729382
-0.0788237
-0.0846327
-0.0903304
-0.0959196
0.0279183
0.020041
0.0114757
0.00405571
-0.00248261
-0.0088841
-0.0153952
-0.0218842
-0.0282118
-0.0343595
-0.0403666
-0.0462617
-0.0520493
-0.0577251
-0.0632904
-0.0687548
-0.0742165
-0.079599
-0.0848848
-0.0900881
0.0226971
0.0156075
0.00799696
0.00135958
-0.00454392
-0.0103324
-0.0162134
-0.0220828
-0.0278258
-0.033423
-0.038905
-0.044296
-0.0496011
-0.0548167
-0.0599424
-0.0649885
-0.0700324
-0.075018
-0.0799314
-0.0847818
0.0180912
0.0117035
0.00493207
-0.0010134
-0.00635329
-0.0116008
-0.0169272
-0.022249
-0.0274719
-0.0325783
-0.0375926
-0.0425363
-0.0474168
-0.0522357
-0.0569925
-0.0616815
-0.0662515
-0.070834
-0.0754058
-0.0799356
0.0140275
0.00826484
0.00222937
-0.00310567
-0.00794453
-0.0127122
-0.0175479
-0.0223835
-0.0271416
-0.0318069
-0.0363983
-0.040933
-0.0454164
-0.0498474
-0.0542232
-0.0585406
-0.0627931
-0.0670496
-0.0712976
-0.0755143
0.0104411
0.00523529
-0.000155127
-0.00495187
-0.00934452
-0.0136847
-0.0180841
-0.0224861
-0.0268275
-0.0310951
-0.0353036
-0.039467
-0.0435894
-0.0476708
-0.0517097
-0.0557064
-0.0596588
-0.06361
-0.0675502
-0.0714663
0.00727541
0.00256597
-0.00225884
-0.00658059
-0.010575
-0.014533
-0.0185429
-0.0225571
-0.0265241
-0.0304327
-0.0342949
-0.0381216
-0.0419165
-0.0456797
-0.0494103
-0.0531091
-0.0567768
-0.0604441
-0.0640993
-0.067735
0.00448097
0.000214559
-0.00411368
-0.00801576
-0.0116541
-0.0152691
-0.0189301
-0.0225966
-0.0262263
-0.0298104
-0.0333581
-0.0368784
-0.0403742
-0.0438458
-0.0472928
-0.0507167
-0.0541193
-0.0575248
-0.0609165
-0.0642902
0.00201507
-0.00185543
-0.00574697
-0.00927759
-0.0125968
-0.0159034
-0.0192509
-0.0226047
-0.0259303
-0.0292204
-0.0324824
-0.0357234
-0.0389455
-0.0421482
-0.0453309
-0.0484946
-0.051644
-0.0548115
-0.0579619
-0.0610933
-0.000159281
-0.00367539
-0.00718205
-0.0103832
-0.0134158
-0.0164442
-0.0195094
-0.0225814
-0.025632
-0.0286556
-0.0316583
-0.0346458
-0.0376202
-0.0405815
-0.0435301
-0.0464662
-0.0493887
-0.0522922
-0.0551992
-0.0581062
-0.00207401
-0.0052723
-0.00843892
-0.011347
-0.0141217
-0.0168985
-0.0197085
-0.0225257
-0.0253269
-0.0281078
-0.0308734
-0.0336281
-0.0363735
-0.0391095
-0.0418361
-0.0445524
-0.0472564
-0.0499372
-0.0526279
-0.0553255
-0.00375679
-0.00666949
-0.0095349
-0.0121817
-0.0147235
-0.0172723
-0.019851
-0.022437
-0.0250113
-0.0275704
-0.0301183
-0.0326585
-0.035192
-0.0377183
-0.0402373
-0.0427484
-0.0452507
-0.047741
-0.0502369
-0.0527368
-0.00523184
-0.00788737
-0.0104853
-0.0128985
-0.0152298
-0.0175715
-0.0199401
-0.022316
-0.0246835
-0.0270398
-0.0293883
-0.0317315
-0.0340702
-0.0364039
-0.0387325
-0.0410555
-0.0433728
-0.0456828
-0.047996
-0.0503111
-0.00652051
-0.00894404
-0.0113039
-0.0135079
-0.0156485
-0.0178018
-0.0199793
-0.022164
-0.0243429
-0.0265139
-0.0286796
-0.030842
-0.0330015
-0.0351579
-0.0373107
-0.0394597
-0.0416049
-0.0437455
-0.0458882
-0.048032
-0.00764185
-0.00985574
-0.0120032
-0.0140194
-0.0159871
-0.0179688
-0.0199724
-0.0219829
-0.0239897
-0.025991
-0.027989
-0.0299853
-0.03198
-0.0339728
-0.0359633
-0.0379513
-0.0399367
-0.0419192
-0.0439035
-0.0458882
-0.00861292
-0.0106371
-0.0125947
-0.0144422
-0.0162528
-0.0180781
-0.0199231
-0.0217748
-0.0236243
-0.0254703
-0.0273146
-0.0291581
-0.0310011
-0.032843
-0.0346836
-0.0365225
-0.0383597
-0.0401951
-0.0420321
-0.043869
-0.00944917
-0.0113015
-0.0130892
-0.0147846
-0.0164525
-0.0181352
-0.0198355
-0.0215423
-0.023248
-0.0249518
-0.0266548
-0.0283579
-0.0300612
-0.031764
-0.0334661
-0.0351672
-0.0368673
-0.0385662
-0.0402668
-0.0419666
-0.0101647
-0.0118612
-0.0134965
-0.0150548
-0.0165929
-0.0181455
-0.0197139
-0.0212883
-0.0228626
-0.024436
-0.0260094
-0.0275835
-0.029158
-0.0307325
-0.0323066
-0.0338799
-0.0354525
-0.0370245
-0.0385997
-0.0401729
-0.0107723
-0.0123275
-0.013826
-0.0152606
-0.0166808
-0.0181146
-0.0195626
-0.0210163
-0.0224705
-0.0239246
-0.0253793
-0.026835
-0.0282915
-0.0297482
-0.0312048
-0.0326609
-0.0341162
-0.0355706
-0.0370254
-0.0384795
-0.0112839
-0.012711
-0.0140865
-0.0154095
-0.0167223
-0.0180479
-0.0193861
-0.0207296
-0.0220741
-0.0234191
-0.0247651
-0.0261123
-0.0274606
-0.0288095
-0.0301585
-0.0315073
-0.0328555
-0.034202
-0.0355425
-0.0368852
-0.0117103
-0.0130212
-0.0142863
-0.0155083
-0.0167236
-0.0179505
-0.0191886
-0.0204315
-0.0216757
-0.0229208
-0.024167
-0.0254146
-0.026663
-0.0279119
-0.0291609
-0.0304093
-0.031657
-0.0329031
-0.0341465
-0.0353903
-0.0120615
-0.0132673
-0.0144331
-0.0155641
-0.0166907
-0.0178279
-0.0189747
-0.020126
-0.0212789
-0.0224327
-0.0235878
-0.0247442
-0.0259014
-0.027059
-0.0282165
-0.0293736
-0.0305298
-0.0316848
-0.0328376
-0.0339897
-0.0123471
-0.013458
-0.0145346
-0.0155834
-0.0166297
-0.0176854
-0.0187494
-0.0198176
-0.0208873
-0.0219582
-0.0230302
-0.0241034
-0.0251774
-0.0262516
-0.0273257
-0.0283992
-0.0294718
-0.030543
-0.0316122
-0.0326802
-0.0125758
-0.0136011
-0.014598
-0.0155729
-0.0165466
-0.0175285
-0.0185176
-0.0195104
-0.0205049
-0.0215004
-0.0224971
-0.0234947
-0.024493
-0.0254914
-0.0264895
-0.0274869
-0.0284833
-0.0294781
-0.0304709
-0.0314621
-0.0127557
-0.0137043
-0.01463
-0.0155387
-0.016447
-0.0173625
-0.0182841
-0.019209
-0.0201355
-0.021063
-0.0219916
-0.0229209
-0.0238507
-0.0247805
-0.0257097
-0.0266382
-0.0275653
-0.0284908
-0.0294143
-0.0303357
-0.0128942
-0.0137746
-0.0146371
-0.0154867
-0.0163366
-0.0171925
-0.0180537
-0.0189178
-0.0197833
-0.0206498
-0.0215171
-0.0223851
-0.0232533
-0.0241212
-0.0249885
-0.0258548
-0.0267197
-0.0275827
-0.0284435
-0.0293019
-0.0129982
-0.0138185
-0.0146252
-0.0154226
-0.0162207
-0.0170238
-0.0178313
-0.0186413
-0.0194526
-0.0202647
-0.0210776
-0.0218908
-0.022704
-0.0235168
-0.0243287
-0.0251395
-0.0259486
-0.0267558
-0.0275605
-0.0283627
-0.0130741
-0.0138419
-0.0146002
-0.0153519
-0.0161046
-0.0168614
-0.0176217
-0.0183842
-0.0191478
-0.0199121
-0.0206769
-0.0214418
-0.0222065
-0.0229706
-0.0237337
-0.0244954
-0.0252553
-0.026013
-0.0267682
-0.0275205
-0.0131274
-0.0138503
-0.0145672
-0.0152798
-0.0159933
-0.0167101
-0.0174298
-0.0181512
-0.0188736
-0.0195964
-0.0203195
-0.0210425
-0.0217651
-0.0224868
-0.0232073
-0.0239263
-0.0246432
-0.0253579
-0.0260698
-0.0267788
-0.0131633
-0.013849
-0.0145314
-0.0152112
-0.0158919
-0.0165751
-0.0172605
-0.0179473
-0.0186347
-0.0193225
-0.0200102
-0.0206976
-0.0213844
-0.0220701
-0.0227544
-0.0234369
-0.0241173
-0.0247952
-0.0254703
-0.0261422
-0.0131863
-0.0138423
-0.0144972
-0.0151507
-0.015805
-0.016461
-0.0171186
-0.0177772
-0.0184362
-0.0190952
-0.019754
-0.0204121
-0.0210693
-0.0217253
-0.0223797
-0.0230321
-0.0236822
-0.0243296
-0.0249742
-0.0256154
-0.0132003
-0.0138345
-0.0144691
-0.0151031
-0.0157376
-0.0163732
-0.0170098
-0.0176469
-0.0182842
-0.0189212
-0.0195576
-0.0201932
-0.0208275
-0.0214604
-0.0220914
-0.0227203
-0.0233467
-0.0239704
-0.0245909
-0.025208
-0.0132081
-0.0138288
-0.0144505
-0.0150719
-0.0156932
-0.016315
-0.0169372
-0.0175595
-0.0181816
-0.018803
-0.0194235
-0.0200429
-0.0206608
-0.021277
-0.0218912
-0.022503
-0.0231123
-0.0237188
-0.024322
-0.0249219
-0.0132119
-0.0138282
-0.0144461
-0.0150636
-0.0156806
-0.0162974
-0.016914
-0.0175301
-0.0181454
-0.0187596
-0.0193723
-0.0199834
-0.0205926
-0.0211996
-0.0218042
-0.0224061
-0.0230051
-0.0236009
-0.0241934
-0.0247822
0.113053
0.11453
0.117244
0.121081
0.125829
0.13144
0.137713
0.144601
0.151849
0.159383
0.166832
0.174077
0.180549
0.186099
0.189838
0.191703
0.190213
0.185707
0.17527
0.160279
0.133074
0.11201
0.113422
0.116011
0.11966
0.124152
0.129425
0.135268
0.141616
0.148197
0.154916
0.161383
0.167456
0.172556
0.176516
0.178469
0.178314
0.17472
0.167833
0.155594
0.138857
0.116518
0.110865
0.112205
0.114651
0.118087
0.122291
0.127189
0.132559
0.138321
0.144188
0.15005
0.155506
0.160403
0.164168
0.166636
0.167001
0.165161
0.160035
0.151736
0.139151
0.123011
0.103649
0.109613
0.110873
0.113166
0.116374
0.120272
0.124773
0.129648
0.134801
0.139938
0.144932
0.149383
0.153125
0.155621
0.156695
0.15566
0.152395
0.146146
0.136972
0.124439
0.10892
0.0909544
0.108249
0.109425
0.111556
0.114523
0.118102
0.122191
0.126558
0.13109
0.135494
0.139624
0.143097
0.145732
0.147049
0.146857
0.144615
0.140182
0.1331
0.123374
0.110917
0.0959307
0.0790236
0.10677
0.107857
0.109818
0.112535
0.115781
0.119445
0.123294
0.127198
0.130872
0.134153
0.136685
0.138275
0.138512
0.137198
0.133934
0.128578
0.120887
0.110848
0.0985451
0.0841835
0.0683657
0.105174
0.106167
0.107952
0.110407
0.113311
0.11654
0.119863
0.123138
0.126091
0.128546
0.130184
0.130801
0.130064
0.127776
0.123664
0.117601
0.109491
0.099342
0.0873266
0.0736828
0.0589501
0.103457
0.104352
0.105955
0.10814
0.110694
0.11348
0.116276
0.118927
0.121176
0.122839
0.123635
0.123363
0.121759
0.118644
0.113844
0.107264
0.0989041
0.0888076
0.0771942
0.0643
0.0505973
0.101617
0.102411
0.103827
0.105736
0.107935
0.110275
0.112547
0.114585
0.116155
0.117066
0.117083
0.11601
0.113649
0.109846
0.104508
0.097573
0.0891083
0.0791864
0.0680468
0.0559014
0.0431693
0.0996541
0.100345
0.101569
0.103198
0.105039
0.106935
0.108691
0.110133
0.111054
0.111264
0.110567
0.108785
0.105776
0.101416
0.0956737
0.0885229
0.0800724
0.070413
0.0597892
0.0483823
0.0365671
0.0975674
0.0981525
0.0991836
0.10053
0.102014
0.103472
0.104724
0.105595
0.105903
0.105466
0.104126
0.101726
0.0981739
0.0933785
0.0873517
0.0800998
0.0717576
0.0624236
0.0523395
0.0416552
0.0307046
0.0953578
0.0958364
0.096673
0.0977387
0.0988681
0.0998986
0.100664
0.100994
0.100729
0.0997039
0.0977927
0.0948667
0.0908708
0.0857475
0.0795416
0.0722833
0.0641223
0.0551584
0.0456242
0.0356399
0.0255005
0.0930273
0.0933992
0.094042
0.09483
0.0956124
0.0962289
0.0965293
0.0963516
0.0955601
0.0940074
0.0915987
0.0882327
0.0838866
0.0785315
0.0722364
0.0650485
0.0571243
0.0485601
0.0395749
0.0302621
0.0208804
0.0905787
0.090845
0.0912962
0.0918126
0.0922581
0.0924783
0.0923394
0.0916918
0.090422
0.088404
0.0855699
0.0818456
0.0772347
0.0717322
0.0654237
0.0583678
0.050721
0.0425737
0.0341283
0.0254544
0.0167778
0.0880164
0.0881791
0.0884427
0.0886959
0.0888176
0.0886628
0.0881139
0.0870369
0.0853394
0.0829178
0.0797284
0.075722
0.0709232
0.0653462
0.0590871
0.0522111
0.0448703
0.0371472
0.0292261
0.0211563
0.013134
0.0853457
0.085408
0.0854897
0.0854906
0.0853046
0.0847989
0.0838724
0.0824085
0.0803348
0.0775702
0.0740921
0.0698734
0.0649549
0.0593657
0.0532072
0.0465477
0.0395313
0.0322318
0.0248154
0.017314
0.00989753
0.0825736
0.0825396
0.0824467
0.0822084
0.0817334
0.0809037
0.0796342
0.077827
0.0754286
0.0723795
0.0686751
0.0643072
0.0593287
0.0537796
0.0477627
0.0413462
0.0346646
0.0277825
0.0208484
0.0138798
0.00702344
0.0797082
0.0795829
0.0793246
0.078862
0.0781191
0.0769941
0.0754178
0.0733115
0.070639
0.0673609
0.0634877
0.059027
0.0540401
0.0485743
0.0427308
0.0365758
0.030233
0.0237578
0.0172821
0.0108115
0.00447235
0.0767589
0.0765482
0.0761351
0.075465
0.0744771
0.0730871
0.0712411
0.0688794
0.0659818
0.0625266
0.058537
0.0540331
0.0490816
0.0437342
0.0380882
0.0322066
0.0262014
0.0201198
0.0140778
0.00807153
0.00220992
0.0737365
0.073447
0.072891
0.0720316
0.0708233
0.0691992
0.067121
0.0645467
0.0614704
0.0578861
0.0538271
0.0493232
0.0444436
0.0392425
0.0338117
0.0282097
0.0225372
0.0168336
0.0112006
0.00562693
0.000206078
0.0706531
0.0702918
0.0696061
0.0685766
0.0671733
0.0653468
0.0630733
0.0603274
0.0571161
0.0534464
0.0493596
0.0448926
0.0401152