/*--------------------------------*- C++ -*----------------------------------*\
  =========                 |
  \\      /  F ield         | OpenFOAM: The Open Source CFD Toolbox
   \\    /   O peration     | Website:  https://openfoam.org
    \\  /    A nd           | Version:  7
     \\/     M anipulation  |
\*---------------------------------------------------------------------------*/
FoamFile
{
    version     2.0;
    format      ascii;
    class       volScalarField;
    location    "25";
    object      p;
}
// * * * * * * * * * * * * * * * * * * * * * * * * * * * * * * * * * * * * * //

dimensions      [0 2 -2 0 0 0 0];

internalField   nonuniform List<scalar> 
6386
(
-0.229095
-0.231076
-0.232005
-0.232758
-0.233407
-0.233978
-0.234492
-0.234953
-0.235358
-0.235716
-0.229296
-0.231254
-0.232171
-0.232911
-0.233548
-0.234105
-0.234605
-0.235052
-0.235439
-0.235765
-0.229692
-0.231605
-0.232496
-0.233212
-0.233823
-0.234354
-0.234826
-0.235242
-0.235592
-0.235852
-0.230277
-0.232123
-0.232976
-0.233654
-0.234226
-0.234717
-0.235145
-0.235514
-0.235809
-0.235963
-0.231041
-0.232802
-0.233604
-0.234231
-0.23475
-0.235186
-0.235553
-0.235856
-0.236079
-0.236076
-0.231974
-0.233632
-0.234371
-0.234932
-0.235384
-0.23575
-0.236038
-0.236255
-0.236389
-0.236162
-0.233063
-0.234603
-0.235266
-0.235749
-0.236118
-0.236397
-0.236586
-0.236693
-0.236728
-0.236183
-0.234296
-0.235705
-0.23628
-0.236669
-0.236939
-0.237113
-0.237184
-0.237152
-0.237087
-0.236089
-0.235659
-0.236927
-0.237402
-0.237683
-0.237836
-0.237888
-0.237819
-0.237613
-0.237467
-0.235799
-0.237143
-0.238261
-0.238624
-0.238779
-0.238798
-0.23871
-0.238481
-0.238063
-0.237904
-0.235212
-0.238739
-0.2397
-0.239936
-0.239949
-0.239815
-0.23957
-0.239162
-0.238484
-0.238432
-0.234427
-0.240441
-0.241239
-0.241334
-0.241186
-0.24088
-0.240458
-0.239858
-0.238866
-0.238626
-0.233738
-0.242249
-0.242878
-0.242814
-0.242485
-0.241986
-0.24137
-0.240566
-0.239358
-0.238761
-0.23273
-0.244167
-0.244618
-0.244378
-0.243844
-0.243131
-0.242302
-0.241271
-0.239841
-0.238959
-0.231425
-0.246204
-0.246467
-0.246029
-0.245265
-0.244313
-0.243253
-0.241982
-0.240322
-0.239169
-0.229945
-0.248438
-0.247777
-0.246752
-0.245534
-0.244221
-0.242696
-0.240835
-0.23931
-0.228468
-0.250549
-0.249633
-0.248319
-0.246802
-0.245209
-0.243406
-0.241413
-0.239254
-0.227176
-0.252823
-0.251622
-0.24998
-0.24813
-0.246228
-0.244112
-0.242091
-0.238799
-0.226176
-0.253772
-0.251762
-0.249542
-0.247299
-0.244832
-0.242898
-0.237849
-0.226237
-0.256111
-0.253695
-0.25107
-0.248454
-0.245602
-0.243779
-0.23679
-0.230641
-0.255821
-0.252755
-0.249735
-0.246467
-0.244534
-0.236282
-0.2417
-0.254649
-0.251188
-0.247478
-0.245048
-0.236526
-0.240721
-0.256804
-0.252863
-0.248676
-0.24543
-0.236993
-0.237887
-0.254803
-0.250066
-0.245841
-0.237319
-0.235113
-0.251642
-0.246316
-0.237392
-0.232301
-0.246833
-0.237141
-0.229553
-0.236548
-0.226797
-0.223961
-0.235495
-0.223856
-0.236434
-0.226687
-0.246712
-0.237022
-0.229438
-0.25152
-0.246191
-0.237267
-0.23218
-0.254684
-0.24994
-0.245711
-0.237187
-0.234986
-0.256689
-0.252741
-0.248547
-0.245297
-0.236856
-0.237755
-0.254532
-0.251064
-0.247346
-0.24491
-0.236383
-0.240585
-0.25571
-0.252638
-0.249609
-0.246332
-0.244394
-0.236135
-0.241562
-0.256004
-0.253584
-0.250952
-0.248328
-0.245466
-0.243636
-0.23664
-0.230494
-0.253666
-0.251652
-0.249425
-0.247173
-0.244695
-0.242753
-0.237697
-0.226086
-0.252722
-0.251519
-0.249872
-0.248015
-0.246103
-0.243976
-0.241947
-0.238646
-0.226024
-0.250451
-0.249533
-0.248214
-0.246689
-0.245087
-0.243272
-0.24127
-0.239103
-0.227026
-0.248284
-0.248344
-0.247681
-0.246651
-0.245425
-0.244102
-0.242566
-0.240696
-0.239161
-0.228322
-0.246116
-0.246378
-0.245937
-0.245168
-0.244208
-0.243139
-0.241857
-0.240187
-0.239025
-0.229804
-0.244085
-0.244534
-0.244292
-0.243752
-0.243032
-0.242194
-0.241152
-0.239713
-0.238821
-0.23129
-0.242174
-0.242801
-0.242734
-0.242399
-0.241894
-0.241268
-0.240455
-0.239239
-0.23863
-0.232604
-0.240373
-0.241169
-0.24126
-0.241107
-0.240794
-0.240364
-0.239754
-0.238759
-0.238499
-0.233622
-0.238678
-0.239636
-0.239869
-0.239877
-0.239737
-0.239484
-0.239068
-0.238383
-0.238314
-0.234324
-0.237089
-0.238204
-0.238563
-0.238714
-0.238727
-0.238633
-0.238396
-0.237972
-0.237804
-0.23511
-0.235613
-0.236877
-0.237349
-0.237625
-0.237773
-0.237819
-0.237743
-0.237532
-0.237379
-0.235707
-0.234256
-0.235661
-0.236234
-0.236619
-0.236884
-0.237053
-0.237118
-0.23708
-0.237011
-0.236009
-0.23303
-0.234566
-0.235226
-0.235706
-0.236071
-0.236345
-0.236529
-0.236632
-0.236662
-0.236115
-0.231947
-0.233601
-0.234337
-0.234896
-0.235345
-0.235707
-0.23599
-0.236204
-0.236334
-0.236105
-0.231019
-0.232777
-0.233577
-0.234201
-0.234718
-0.235151
-0.235514
-0.235815
-0.236035
-0.23603
-0.23026
-0.232104
-0.232956
-0.233631
-0.234202
-0.23469
-0.235115
-0.235482
-0.235775
-0.235927
-0.229681
-0.231591
-0.232481
-0.233196
-0.233805
-0.234335
-0.234805
-0.235219
-0.235568
-0.235827
-0.229289
-0.231246
-0.232162
-0.232902
-0.233538
-0.234094
-0.234593
-0.235039
-0.235425
-0.23575
-0.229093
-0.231073
-0.232002
-0.232755
-0.233404
-0.233974
-0.234487
-0.234949
-0.235354
-0.235711
-0.236147
-0.23644
-0.236734
-0.237023
-0.237304
-0.237575
-0.237829
-0.23806
-0.238259
-0.238416
-0.238519
-0.238557
-0.238518
-0.238387
-0.238151
-0.237795
-0.237298
-0.236642
-0.235801
-0.234745
-0.233436
-0.231827
-0.229859
-0.227457
-0.224521
-0.220938
-0.216554
-0.211222
-0.204686
-0.196848
-0.187294
-0.176195
-0.16282
-0.148036
-0.130746
-0.112477
-0.0930436
-0.0714889
-0.0549632
-0.0290466
-0.0234824
0.00760495
-0.236236
-0.236513
-0.236799
-0.237084
-0.23736
-0.237627
-0.237878
-0.238106
-0.2383
-0.238452
-0.238549
-0.23858
-0.238533
-0.238395
-0.23815
-0.237784
-0.23728
-0.236616
-0.235768
-0.234708
-0.233399
-0.231795
-0.229838
-0.227452
-0.224539
-0.220988
-0.216642
-0.211351
-0.204847
-0.197054
-0.187569
-0.176504
-0.163143
-0.14837
-0.131065
-0.112778
-0.0932996
-0.0717161
-0.0551604
-0.0291674
-0.0235555
0.00749916
-0.236405
-0.236649
-0.236921
-0.237199
-0.237469
-0.237731
-0.237977
-0.2382
-0.23839
-0.238536
-0.238627
-0.238651
-0.238597
-0.23845
-0.238197
-0.237822
-0.23731
-0.236639
-0.235787
-0.234725
-0.233418
-0.231822
-0.229878
-0.227514
-0.224631
-0.22112
-0.21682
-0.21158
-0.205094
-0.197427
-0.187952
-0.176945
-0.163605
-0.148852
-0.131528
-0.11323
-0.0936947
-0.0720865
-0.055518
-0.0294019
-0.0237364
0.00725231
-0.236645
-0.236842
-0.237094
-0.237361
-0.237623
-0.237879
-0.23812
-0.238338
-0.238523
-0.238663
-0.238748
-0.238765
-0.238703
-0.238548
-0.238286
-0.237904
-0.237384
-0.236707
-0.235852
-0.23479
-0.233488
-0.231902
-0.229976
-0.227639
-0.224791
-0.221326
-0.217077
-0.211895
-0.205572
-0.197877
-0.188457
-0.177507
-0.164189
-0.149467
-0.132119
-0.113816
-0.0942166
-0.0725801
-0.0558925
-0.0298664
-0.0240145
0.00687321
-0.236944
-0.237079
-0.237305
-0.237562
-0.237814
-0.238062
-0.238298
-0.238511
-0.238691
-0.238825
-0.238904
-0.238914
-0.238845
-0.238682
-0.238412
-0.238022
-0.237496
-0.236814
-0.235957
-0.234896
-0.233601
-0.232028
-0.230122
-0.227815
-0.225006
-0.221591
-0.217396
-0.212246
-0.205998
-0.198414
-0.189055
-0.178171
-0.164876
-0.150191
-0.132819
-0.114515
-0.094852
-0.0731786
-0.0563989
-0.0304209
-0.0243713
0.00637411
-0.23729
-0.237347
-0.237543
-0.237789
-0.23803
-0.238272
-0.238502
-0.23871
-0.238884
-0.239013
-0.239086
-0.23909
-0.239013
-0.238842
-0.238566
-0.238169
-0.237637
-0.236951
-0.236093
-0.235035
-0.233748
-0.232189
-0.230306
-0.228031
-0.225263
-0.221902
-0.217764
-0.21277
-0.206518
-0.199017
-0.18972
-0.178909
-0.16564
-0.150999
-0.133604
-0.115304
-0.0955828
-0.0738883
-0.0569909
-0.031053
-0.0247847
0.00576983
-0.237671
-0.237628
-0.237794
-0.238029
-0.23826
-0.238494
-0.238719
-0.238922
-0.239092
-0.239216
-0.239283
-0.239281
-0.239197
-0.23902
-0.238737
-0.238334
-0.237797
-0.237109
-0.23625
-0.235196
-0.233918
-0.232375
-0.230515
-0.228274
-0.225548
-0.222241
-0.218146
-0.213224
-0.207072
-0.199661
-0.190427
-0.179695
-0.166455
-0.151866
-0.134446
-0.116157
-0.0963692
-0.0746725
-0.0576689
-0.0317595
-0.0252319
0.00507692
-0.238087
-0.237907
-0.238042
-0.23827
-0.23849
-0.238717
-0.238937
-0.239136
-0.239301
-0.239421
-0.239483
-0.239475
-0.239386
-0.239204
-0.238915
-0.238508
-0.237967
-0.237277
-0.236419
-0.23537
-0.234101
-0.232575
-0.230738
-0.228531
-0.225847
-0.222593
-0.2186
-0.213722
-0.207642
-0.200322
-0.191153
-0.180505
-0.167293
-0.152768
-0.13532
-0.117047
-0.0972128
-0.0754928
-0.0584092
-0.0325274
-0.0256914
0.00431293
-0.238579
-0.238166
-0.238274
-0.238498
-0.238708
-0.238927
-0.239143
-0.239338
-0.2395
-0.239616
-0.239674
-0.239662
-0.239569
-0.239382
-0.23909
-0.238679
-0.238135
-0.237445
-0.236589
-0.235545
-0.234286
-0.232776
-0.230963
-0.22879
-0.226146
-0.22293
-0.219027
-0.214217
-0.208207
-0.200978
-0.191873
-0.181319
-0.168124
-0.153661
-0.136218
-0.11795
-0.0980913
-0.0763356
-0.0591888
-0.033342
-0.0261447
0.00349549
-0.239204
-0.23839
-0.238478
-0.238703
-0.238902
-0.239114
-0.239325
-0.239516
-0.239675
-0.239788
-0.239844
-0.239829
-0.239733
-0.239544
-0.239249
-0.238837
-0.238293
-0.237603
-0.236749
-0.235711
-0.234463
-0.232969
-0.231177
-0.229038
-0.226427
-0.223304
-0.219418
-0.21469
-0.208749
-0.201607
-0.192566
-0.18209
-0.168949
-0.154537
-0.137105
-0.118845
-0.0989829
-0.0771864
-0.059988
-0.0341899
-0.026577
0.00264161
-0.239579
-0.238679
-0.238656
-0.238873
-0.239064
-0.239266
-0.239472
-0.239656
-0.239814
-0.239926
-0.23998
-0.239964
-0.239868
-0.239678
-0.239383
-0.238971
-0.238428
-0.23774
-0.236891
-0.235859
-0.234621
-0.233143
-0.231372
-0.229261
-0.226644
-0.223627
-0.219781
-0.215125
-0.209248
-0.202192
-0.193215
-0.182821
-0.169726
-0.155373
-0.137963
-0.11971
-0.0998693
-0.07803
-0.0607888
-0.035059
-0.026977
0.00176702
-0.239849
-0.239011
-0.238798
-0.238999
-0.239183
-0.239369
-0.239568
-0.239752
-0.239906
-0.240016
-0.240071
-0.240056
-0.239961
-0.239774
-0.239481
-0.239072
-0.238532
-0.237848
-0.237004
-0.235979
-0.234752
-0.233289
-0.231538
-0.229449
-0.226983
-0.22389
-0.220101
-0.21551
-0.209693
-0.202717
-0.193802
-0.18349
-0.170441
-0.156149
-0.138777
-0.120529
-0.100734
-0.0788531
-0.0615745
-0.0359381
-0.027337
0.000885732
-0.240165
-0.239336
-0.238897
-0.23908
-0.239252
-0.239416
-0.239605
-0.239784
-0.239936
-0.240046
-0.240103
-0.240093
-0.240003
-0.23982
-0.239533
-0.239129
-0.238595
-0.237917
-0.23708
-0.236062
-0.234846
-0.233398
-0.231656
-0.229599
-0.227126
-0.224106
-0.220365
-0.215833
-0.210071
-0.203169
-0.194312
-0.184078
-0.171083
-0.156849
-0.139533
-0.121289
-0.101562
-0.0796448
-0.0623308
-0.036817
-0.027652
9.74261e-06
-0.240511
-0.23967
-0.238961
-0.239114
-0.239262
-0.239396
-0.239569
-0.239742
-0.239891
-0.240004
-0.240066
-0.240062
-0.239979
-0.239805
-0.239527
-0.239131
-0.238605
-0.237936
-0.237107
-0.236098
-0.234894
-0.233456
-0.231687
-0.229736
-0.227242
-0.224265
-0.220561
-0.216082
-0.210369
-0.203535
-0.194734
-0.184575
-0.17164
-0.157461
-0.140219
-0.121976
-0.10234
-0.0803956
-0.0630452
-0.0376862
-0.0279195
-0.000851056
-0.24087
-0.240022
-0.238995
-0.239096
-0.239203
-0.239292
-0.239445
-0.23961
-0.239757
-0.239874
-0.239944
-0.23995
-0.23988
-0.239718
-0.239452
-0.239068
-0.238554
-0.237895
-0.237077
-0.236078
-0.234887
-0.233458
-0.231833
-0.229756
-0.227297
-0.224354
-0.220681
-0.216249
-0.210578
-0.203805
-0.195058
-0.184968
-0.172099
-0.157972
-0.140824
-0.122582
-0.103055
-0.0810971
-0.0637068
-0.0385365
-0.028138
-0.00168873
-0.241236
-0.240367
-0.238986
-0.239013
-0.239054
-0.239083
-0.239213
-0.23937
-0.239518
-0.239641
-0.239723
-0.239745
-0.23969
-0.239545
-0.239295
-0.238928
-0.238428
-0.237783
-0.236977
-0.235989
-0.234809
-0.233403
-0.231735
-0.229714
-0.22728
-0.224362
-0.220716
-0.216322
-0.210688
-0.20397
-0.195274
-0.185247
-0.172453
-0.158372
-0.141335
-0.123095
-0.103696
-0.0817405
-0.0643055
-0.0393587
-0.0283076
-0.00249695
-0.24155
-0.240591
-0.238884
-0.238841
-0.238789
-0.23875
-0.238857
-0.239009
-0.23916
-0.239296
-0.239394
-0.239434
-0.239401
-0.239276
-0.239047
-0.238699
-0.238218
-0.23759
-0.236798
-0.23582
-0.234636
-0.233293
-0.231595
-0.2296
-0.227177
-0.224281
-0.220654
-0.216293
-0.210691
-0.204021
-0.195375
-0.185404
-0.172692
-0.158655
-0.141748
-0.123513
-0.104258
-0.0823227
-0.0648404
-0.0401463
-0.0284335
-0.00327153
-0.241739
-0.240559
-0.238655
-0.238573
-0.238396
-0.238279
-0.238363
-0.238513
-0.238672
-0.238822
-0.23894
-0.239004
-0.238995
-0.238896
-0.238692
-0.238369
-0.23791
-0.237303
-0.236529
-0.235569
-0.234453
-0.233043
-0.231372
-0.229393
-0.22698
-0.224102
-0.220491
-0.216159
-0.210585
-0.20396
-0.195366
-0.185452
-0.172834
-0.158841
-0.142084
-0.123859
-0.104763
-0.0828592
-0.0653303
-0.0409031
-0.0285293
-0.00401312
-0.242612
-0.240241
-0.238247
-0.23812
-0.237772
-0.23757
-0.237635
-0.23779
-0.237965
-0.238139
-0.238287
-0.238385
-0.238411
-0.238348
-0.238179
-0.23789
-0.237464
-0.236887
-0.236137
-0.235199
-0.234101
-0.232696
-0.231043
-0.22908
-0.22668
-0.22382
-0.220226
-0.215923
-0.21038
-0.2038
-0.195265
-0.185407
-0.172898
-0.158949
-0.142359
-0.124144
-0.105218
-0.0833577
-0.0657715
-0.0416339
-0.0285886
-0.004728
-0.242437
-0.237851
-0.236846
-0.236968
-0.236555
-0.236368
-0.23649
-0.236707
-0.236942
-0.237173
-0.237378
-0.237533
-0.237615
-0.237605
-0.237485
-0.237242
-0.236858
-0.23632
-0.235596
-0.234598
-0.233585
-0.232232
-0.230601
-0.228655
-0.226264
-0.223414
-0.219827
-0.215534
-0.210006
-0.203442
-0.194953
-0.185117
-0.172709
-0.15878
-0.142356
-0.12417
-0.105397
-0.0836712
-0.0659807
-0.0422765
-0.0285113
-0.00541167
-0.227101
-0.228994
-0.233657
-0.235144
-0.23504
-0.234994
-0.235223
-0.235534
-0.235842
-0.236131
-0.236391
-0.236598
-0.236729
-0.236765
-0.236689
-0.236486
-0.236143
-0.235654
-0.235021
-0.234238
-0.232969
-0.231581
-0.229933
-0.227966
-0.22555
-0.222665
-0.219045
-0.2147
-0.209144
-0.202516
-0.194037
-0.184144
-0.171835
-0.15789
-0.141672
-0.123591
-0.105001
-0.0836589
-0.0657755
-0.0429163
-0.0281672
-0.00623619
-0.226071
-0.2262
-0.230385
-0.23202
-0.231973
-0.231947
-0.232291
-0.232771
-0.23323
-0.233643
-0.234009
-0.234313
-0.234531
-0.234644
-0.234634
-0.234488
-0.234187
-0.233717
-0.233046
-0.232127
-0.231055
-0.229714
-0.228058
-0.22607
-0.223616
-0.220676
-0.216994
-0.212571
-0.20696
-0.200258
-0.191792
-0.181869
-0.169725
-0.155854
-0.139974
-0.122151
-0.103908
-0.0831377
-0.0651927
-0.0433435
-0.027697
-0.00701542
-0.222668
-0.222694
-0.225359
-0.226888
-0.227242
-0.227509
-0.228071
-0.228767
-0.229428
-0.230017
-0.230539
-0.230985
-0.231333
-0.231564
-0.231657
-0.231602
-0.231378
-0.230972
-0.230361
-0.22954
-0.228457
-0.227116
-0.225449
-0.223437
-0.220942
-0.217945
-0.214198
-0.209696
-0.204032
-0.197264
-0.188825
-0.178907
-0.166951
-0.153227
-0.137712
-0.120256
-0.102391
-0.0822885
-0.0643614
-0.043512
-0.0272059
-0.00759856
-0.216674
-0.217603
-0.218998
-0.220142
-0.220894
-0.22161
-0.22248
-0.223424
-0.224319
-0.225129
-0.225854
-0.226488
-0.227011
-0.227403
-0.227643
-0.227719
-0.227613
-0.227312
-0.226795
-0.226048
-0.225015
-0.223698
-0.222041
-0.220023
-0.217505
-0.214464
-0.21067
-0.206105
-0.20041
-0.193601
-0.185218
-0.17535
-0.163611
-0.150111
-0.134981
-0.117988
-0.100523
-0.0811619
-0.0633274
-0.0434473
-0.0267015
-0.00800887
-0.208192
-0.210563
-0.211481
-0.212248
-0.213233
-0.214382
-0.215601
-0.216807
-0.217943
-0.218988
-0.219939
-0.220788
-0.221513
-0.222093
-0.22251
-0.222748
-0.22279
-0.222622
-0.222219
-0.221568
-0.220627
-0.219365
-0.217741
-0.215737
-0.213219
-0.210158
-0.206343
-0.201743
-0.196048
-0.189239
-0.180948
-0.17119
-0.159704
-0.146508
-0.131794
-0.115352
-0.0983263
-0.0797522
-0.0621092
-0.043145
-0.0261812
-0.0082656
-0.197939
-0.201787
-0.202859
-0.203486
-0.20462
-0.206128
-0.207695
-0.209174
-0.210543
-0.211812
-0.212984
-0.214045
-0.214973
-0.215747
-0.216347
-0.216757
-0.216957
-0.216934
-0.216661
-0.21612
-0.215272
-0.214116
-0.21255
-0.21058
-0.208088
-0.205033
-0.201228
-0.196628
-0.190971
-0.184211
-0.176053
-0.166471
-0.155279
-0.142463
-0.128203
-0.112379
-0.095844
-0.0780762
-0.0607328
-0.0426196
-0.0256428
-0.00839335
-0.186938
-0.191843
-0.193375
-0.194133
-0.195429
-0.197221
-0.199099
-0.200844
-0.202435
-0.203909
-0.205279
-0.206534
-0.207648
-0.208601
-0.209372
-0.209945
-0.210299
-0.210419
-0.210277
-0.209857
-0.209124
-0.208062
-0.206571
-0.204655
-0.202209
-0.199187
-0.195422
-0.19086
-0.185278
-0.178617
-0.170634
-0.161289
-0.15043
-0.138057
-0.124289
-0.109126
-0.0931335
-0.0761691
-0.0592267
-0.0418994
-0.0250826
-0.00841754
-0.175744
-0.181293
-0.18337
-0.184441
-0.185948
-0.187972
-0.19011
-0.192099
-0.193899
-0.195558
-0.197103
-0.198527
-0.199806
-0.200917
-0.201839
-0.202557
-0.20305
-0.203302
-0.203283
-0.202978
-0.202348
-0.201376
-0.199977
-0.198132
-0.195746
-0.192778
-0.189076
-0.184587
-0.179113
-0.172595
-0.164824
-0.155764
-0.145274
-0.133385
-0.120142
-0.10566
-0.0902545
-0.0740747
-0.0576181
-0.0410185
-0.024497
-0.00836142
-0.164679
-0.17058
-0.173155
-0.17461
-0.176364
-0.178592
-0.180943
-0.183145
-0.185138
-0.186968
-0.188669
-0.190242
-0.191665
-0.192914
-0.193969
-0.194815
-0.19543
-0.195799
-0.195891
-0.19569
-0.195152
-0.194259
-0.192961
-0.191196
-0.188881
-0.185981
-0.182363
-0.177972
-0.172633
-0.166293
-0.158762
-0.150022
-0.139926
-0.128545
-0.115849
-0.102048
-0.0872618
-0.0718385
-0.0559305
-0.0400114
-0.0238835
-0.00824438
-0.153951
-0.159989
-0.16296
-0.16479
-0.1668
-0.169212
-0.17174
-0.174125
-0.176294
-0.17828
-0.180124
-0.18183
-0.183379
-0.184751
-0.185923
-0.186882
-0.187606
-0.188079
-0.188271
-0.188164
-0.187716
-0.186911
-0.185691
-0.184007
-0.181772
-0.178955
-0.175436
-0.171165
-0.165981
-0.159843
-0.152572
-0.144174
-0.134487
-0.123621
-0.111484
-0.0983505
-0.0842006
-0.0695021
-0.0541836
-0.0389088
-0.0232418
-0.00808198
-0.143635
-0.14967
-0.152934
-0.155092
-0.15734
-0.159919
-0.162596
-0.165134
-0.167457
-0.169586
-0.171559
-0.173385
-0.175049
-0.17653
-0.177808
-0.178869
-0.17969
-0.180258
-0.180541
-0.180523
-0.180162
-0.179438
-0.178294
-0.176692
-0.174546
-0.171824
-0.168415
-0.164279
-0.159265
-0.153347
-0.146351
-0.138302
-0.129033
-0.118677
-0.107101
-0.0946142
-0.0811051
-0.0670996
-0.0523931
-0.0377356
-0.022573
-0.00788627
-0.133761
-0.139709
-0.143175
-0.145599
-0.148052
-0.150773
-0.153571
-0.156237
-0.15869
-0.160945
-0.163034
-0.164968
-0.166734
-0.168315
-0.169689
-0.170843
-0.171754
-0.172409
-0.172779
-0.172844
-0.172566
-0.171922
-0.170857
-0.169339
-0.167287
-0.16467
-0.161383
-0.157394
-0.152562
-0.146873
-0.140161
-0.132465
-0.123615
-0.113759
-0.102737
-0.0908729
-0.0779994
-0.0646574
-0.0505711
-0.0365111
-0.0218793
-0.00766638
-0.124352
-0.130155
-0.133746
-0.136372
-0.138987
-0.141821
-0.144714
-0.14748
-0.150039
-0.152401
-0.154591
-0.15662
-0.158477
-0.160147
-0.161609
-0.162847
-0.163843
-0.16458
-0.165031
-0.165176
-0.164979
-0.164415
-0.163433
-0.162004
-0.160052
-0.157547
-0.15439
-0.150558
-0.145918
-0.140465
-0.134042
-0.126698
-0.118264
-0.108894
-0.0984161
-0.0871496
-0.0748996
-0.0621947
-0.0487274
-0.0352499
-0.021164
-0.00742912
-0.115416
-0.121032
-0.124683
-0.127453
-0.130188
-0.133103
-0.136063
-0.138901
-0.141543
-0.14399
-0.146264
-0.148374
-0.15031
-0.152058
-0.153597
-0.154913
-0.155986
-0.156799
-0.157328
-0.157551
-0.157434
-0.156952
-0.156056
-0.154719
-0.152872
-0.150486
-0.147469
-0.1438
-0.13936
-0.134148
-0.128017
-0.121022
-0.112998
-0.1041
-0.0941517
-0.0834595
-0.0718171
-0.0597256
-0.0468699
-0.0339633
-0.0204303
-0.00717953
-0.106956
-0.112353
-0.116014
-0.118876
-0.121689
-0.124652
-0.127651
-0.130535
-0.133234
-0.135745
-0.138084
-0.140259
-0.142261
-0.144074
-0.145681
-0.147066
-0.148208
-0.149093
-0.149695
-0.149994
-0.149954
-0.149555
-0.148748
-0.147508
-0.14577
-0.143509
-0.140637
-0.13714
-0.132905
-0.127936
-0.122099
-0.115448
-0.107828
-0.0993867
-0.0899528
-0.0798128
-0.06876
-0.0572606
-0.0450056
-0.0326598
-0.0196822
-0.00692136
-0.0989669
-0.104126
-0.107753
-0.110662
-0.113516
-0.116496
-0.119506
-0.12241
-0.125142
-0.127694
-0.130079
-0.132302
-0.134355
-0.136222
-0.137885
-0.139329
-0.140534
-0.141484
-0.142154
-0.142525
-0.142562
-0.142245
-0.141528
-0.140389
-0.138764
-0.136631
-0.133911
-0.130589
-0.126563
-0.121841
-0.116296
-0.109984
-0.102759
-0.0947612
-0.0858255
-0.0762173
-0.0657352
-0.0548085
-0.0431411
-0.031347
-0.0189236
-0.00665746
-0.0914426
-0.096348
-0.0999078
-0.102825
-0.105686
-0.108656
-0.111652
-0.114551
-0.117291
-0.119863
-0.122275
-0.124529
-0.126618
-0.128525
-0.130233
-0.131726
-0.132985
-0.133993
-0.134726
-0.135165
-0.135277
-0.135041
-0.134414
-0.133377
-0.131868
-0.129868
-0.127302
-0.124159
-0.120344
-0.115868
-0.110614
-0.104635
-0.097797
-0.0902287
-0.081775
-0.0726793
-0.0627491
-0.0523766
-0.0412827
-0.0300311
-0.0181582
-0.00639007
-0.0843702
-0.089014
-0.0924787
-0.0953729
-0.0982123
-0.101147
-0.104105
-0.106978
-0.109705
-0.112276
-0.114696
-0.116965
-0.119073
-0.121007
-0.122748
-0.124279
-0.125582
-0.126641
-0.127431
-0.127933
-0.128117
-0.12796
-0.127421
-0.126488
-0.125097
-0.123231
-0.120821
-0.117859
-0.114257
-0.110026
-0.105059
-0.0994077
-0.0929461
-0.0857942
-0.0778064
-0.0692049
-0.0598075
-0.0499719
-0.0394367
-0.028718
-0.01739
-0.00612101
-0.0777345
-0.0821138
-0.0854623
-0.0883069
-0.0911009
-0.0939795
-0.0968801
-0.0997056
-0.102401
-0.104952
-0.107362
-0.109629
-0.111743
-0.11369
-0.115451
-0.11701
-0.118349
-0.11945
-0.12029
-0.12085
-0.121101
-0.121023
-0.120579
-0.11974
-0.118465
-0.116733
-0.114481
-0.1117
-0.10831
-0.104322
-0.0996385
-0.0943066
-0.0882113
-0.0814627
-0.0739246
-0.0657996
-0.0569166
-0.0476008
-0.0376089
-0.0274129
-0.0166226
-0.00585185
-0.0715183
-0.0756339
-0.0788508
-0.081625
-0.0843538
-0.0871585
-0.089985
-0.0927467
-0.0953921
-0.0979068
-0.10029
-0.10254
-0.104646
-0.106593
-0.108362
-0.109939
-0.111303
-0.112438
-0.113321
-0.113934
-0.114247
-0.114242
-0.113881
-0.113144
-0.111985
-0.110388
-0.108292
-0.105692
-0.102512
-0.0987635
-0.0943571
-0.0893373
-0.0835977
-0.0772391
-0.0701348
-0.0624692
-0.0540821
-0.0452694
-0.0358052
-0.0261208
-0.0158595
-0.00558396
-0.0657027
-0.069559
-0.0726337
-0.0753211
-0.0779692
-0.080686
-0.0834249
-0.0861085
-0.0886894
-0.0911527
-0.0934958
-0.0957149
-0.097799
-0.0997334
-0.1015
-0.103083
-0.104463
-0.105624
-0.106543
-0.107201
-0.107572
-0.107635
-0.107356
-0.106716
-0.105671
-0.104206
-0.102266
-0.0998431
-0.0968699
-0.093357
-0.0892218
-0.0845056
-0.0791104
-0.0731286
-0.0664422
-0.059219
-0.0513097
-0.0429834
-0.0340311
-0.0248465
-0.0151038
-0.00531857
-0.060269
-0.0638727
-0.0667984
-0.069387
-0.0719425
-0.0745607
-0.0772012
-0.0797954
-0.0822998
-0.0846991
-0.0869893
-0.0891654
-0.0912162
-0.0931271
-0.0948804
-0.0964601
-0.0978471
-0.0990251
-0.0999719
-0.10067
-0.101092
-0.101219
-0.101018
-0.100471
-0.0995372
-0.0982017
-0.096413
-0.0941644
-0.0913936
-0.0881104
-0.0842389
-0.0798173
-0.0747549
-0.0691363
-0.062852
-0.0560546
-0.0486052
-0.0407485
-0.0322917
-0.0235941
-0.0143587
-0.00505679
-0.0551978
-0.0585578
-0.0613311
-0.0638124
-0.0662667
-0.0687785
-0.0713129
-0.073809
-0.0762273
-0.0785524
-0.0807792
-0.0829019
-0.0849091
-0.0867865
-0.0885168
-0.0900839
-0.0914693
-0.0926565
-0.0936241
-0.0943544
-0.0948215
-0.0950072
-0.0948798
-0.094422
-0.093595
-0.0923847
-0.0907435
-0.0886648
-0.0860909
-0.0830309
-0.079415
-0.0752781
-0.0705365
-0.0652674
-0.0593694
-0.0529812
-0.0459739
-0.03857
-0.030592
-0.0223678
-0.0136268
-0.00479965
-0.0504706
-0.053597
-0.0562174
-0.0585861
-0.0609333
-0.0633336
-0.0657565
-0.0681484
-0.0704733
-0.0727162
-0.0748713
-0.076932
-0.078887
-0.0807222
-0.0824209
-0.0839673
-0.085343
-0.0865319
-0.0875131
-0.0882694
-0.0887757
-0.0890143
-0.088955
-0.0885812
-0.0878562
-0.0867665
-0.0852676
-0.0833534
-0.08097
-0.0781259
-0.0747565
-0.0708939
-0.0664608
-0.0615274
-0.0559998
-0.0500041
-0.0434209
-0.0364529
-0.0289367
-0.0211713
-0.0129108
-0.00454808
-0.0460695
-0.0489734
-0.0514426
-0.0536958
-0.0559329
-0.0582187
-0.0605272
-0.0628109
-0.0650374
-0.0671923
-0.0692692
-0.0712611
-0.0731568
-0.0749426
-0.0766024
-0.0781206
-0.0794795
-0.0806632
-0.0816514
-0.0824272
-0.0829666
-0.0832522
-0.0832555
-0.0829602
-0.082332
-0.0813574
-0.079995
-0.0782387
-0.0760387
-0.0734023
-0.0702699
-0.0666708
-0.0625333
-0.0579214
-0.0527481
-0.0471283
-0.0409515
-0.034402
-0.02733
-0.0200083
-0.0122131
-0.00430295
-0.0419776
-0.0446707
-0.0469922
-0.0491295
-0.0512551
-0.0534257
-0.0556186
-0.0577922
-0.0599173
-0.0619803
-0.0639744
-0.0658924
-0.0677233
-0.069454
-0.0710688
-0.0725527
-0.0738886
-0.0750608
-0.0760498
-0.076839
-0.0774055
-0.0777324
-0.0777925
-0.0775699
-0.0770325
-0.076167
-0.0749346
-0.0733293
-0.0713048
-0.0688672
-0.0659617
-0.0626144
-0.0587594
-0.0544546
-0.0496197
-0.0443589
-0.0385704
-0.032422
-0.0257762
-0.018882
-0.0115361
-0.00406506
-0.038179
-0.0406737
-0.0428521
-0.0448747
-0.0468896
-0.0489458
-0.0510238
-0.0530871
-0.0551096
-0.0570786
-0.0589871
-0.0608277
-0.0625899
-0.064261
-0.0658261
-0.0672706
-0.0685781
-0.0697333
-0.0707175
-0.0715146
-0.0721025
-0.072465
-0.072576
-0.0724202
-0.0719674
-0.0712044
-0.070095
-0.0686331
-0.0667755
-0.0645276
-0.0618381
-0.0587309
-0.0551448
-0.0511325
-0.0466196
-0.0417009
-0.0362825
-0.0305172
-0.0242793
-0.0177956
-0.0108817
-0.00383517
-0.0346591
-0.0369677
-0.0390092
-0.0409197
-0.0428261
-0.0447702
-0.0467352
-0.0486896
-0.0506099
-0.0524844
-0.0543059
-0.0560672
-0.0577582
-0.0593667
-0.0608785
-0.0622797
-0.0635545
-0.0646882
-0.0656627
-0.0664625
-0.0670666
-0.067459
-0.0676152
-0.0675202
-0.0671455
-0.0664783
-0.0654845
-0.0641579
-0.0624583
-0.06039
-0.0579054
-0.055026
-0.051695
-0.0479602
-0.0437528
-0.039159
-0.0340923
-0.0286919
-0.0228429
-0.0167521
-0.0102521
-0.00361398
-0.0314048
-0.0335398
-0.035451
-0.0372534
-0.0390544
-0.0408899
-0.0427454
-0.0445933
-0.0464132
-0.048194
-0.0499287
-0.0516103
-0.0532288
-0.0547729
-0.0562291
-0.0575842
-0.0588229
-0.0599313
-0.060892
-0.0616901
-0.0623054
-0.0627226
-0.0629184
-0.0628782
-0.0625751
-0.0619967
-0.0611108
-0.0599111
-0.0583601
-0.0564611
-0.0541699
-0.0515056
-0.0484155
-0.044943
-0.0410244
-0.0367382
-0.0320045
-0.0269504
-0.0214707
-0.0157543
-0.00964913
-0.00340216
-0.028404
-0.0303778
-0.0321662
-0.0338652
-0.0355653
-0.0372967
-0.0390468
-0.0407921
-0.0425145
-0.0442036
-0.0458529
-0.0474553
-0.0490015
-0.0504806
-0.0518801
-0.0531872
-0.0543876
-0.0554678
-0.0564113
-0.0572037
-0.0578259
-0.0582631
-0.0584931
-0.0585019
-0.058264
-0.0577672
-0.0569814
-0.0558999
-0.0544879
-0.0527476
-0.0506378
-0.0481756
-0.0453121
-0.0420864
-0.0384397
-0.0344432
-0.0300236
-0.0252966
-0.0201662
-0.0148049
-0.00907463
-0.00320035
-0.0256463
-0.0274713
-0.0291446
-0.0307458
-0.0323501
-0.0339826
-0.0356325
-0.0372798
-0.0389085
-0.0405092
-0.0420755
-0.0436006
-0.0450755
-0.0464902
-0.0478327
-0.0490911
-0.0502517
-0.0513017
-0.0522254
-0.0530091
-0.0536344
-0.0540872
-0.0543464
-0.0543985
-0.0542194
-0.0537972
-0.0531034
-0.0521314
-0.0508484
-0.049256
-0.0473155
-0.0450422
-0.0423905
-0.0393959
-0.0360037
-0.032279
-0.0281541
-0.0237347
-0.018933
-0.0139067
-0.0085304
-0.00300917
-0.0231228
-0.0248111
-0.0263776
-0.0278871
-0.0294012
-0.0309406
-0.0324963
-0.0340508
-0.0355906
-0.0371069
-0.0385936
-0.0400441
-0.04145
-0.0428017
-0.0440881
-0.0452979
-0.0464182
-0.0474369
-0.0483389
-0.0491112
-0.0497365
-0.050201
-0.0504849
-0.0505749
-0.0504484
-0.0500937
-0.0494841
-0.0486127
-0.0474487
-0.0459931
-0.0442096
-0.0421116
-0.0396567
-0.0368771
-0.033722
-0.0302506
-0.0264006
-0.0222687
-0.0177745
-0.0130623
-0.00801822
-0.00282925
-0.0208259
-0.0223895
-0.0238575
-0.0252819
-0.0267122
-0.028165
-0.0296326
-0.0311005
-0.0325567
-0.0339935
-0.0354048
-0.0367843
-0.0381241
-0.0394152
-0.0406472
-0.0418095
-0.0428899
-0.0438768
-0.0447561
-0.0455152
-0.0461378
-0.0466107
-0.046915
-0.047038
-0.0469581
-0.0466641
-0.0461306
-0.0453509
-0.0442959
-0.0429658
-0.0413267
-0.0393904
-0.0371171
-0.0345361
-0.0316002
-0.0283634
-0.0247681
-0.020903
-0.0166944
-0.0122746
-0.00753989
-0.00266122
-0.0187498
-0.0202004
-0.0215786
-0.0229247
-0.0242778
-0.0256508
-0.0270373
-0.0284251
-0.0298038
-0.0311665
-0.0325073
-0.0338202
-0.0350977
-0.0363314
-0.0375115
-0.038628
-0.0396696
-0.0406252
-0.0414813
-0.0422261
-0.0428441
-0.0433225
-0.0436436
-0.0437951
-0.0437561
-0.0435159
-0.0430507
-0.0423538
-0.0413976
-0.0401817
-0.0386743
-0.0368856
-0.0347785
-0.0323794
-0.0296444
-0.0266229
-0.0232617
-0.019642
-0.0156964
-0.0115463
-0.00709727
-0.00250572
-0.01689
-0.0182396
-0.0195366
-0.0208116
-0.0220945
-0.023395
-0.0247076
-0.0260222
-0.0273301
-0.0286247
-0.0299006
-0.0311519
-0.0323715
-0.0335517
-0.0346831
-0.0357565
-0.0367611
-0.0376863
-0.0385197
-0.0392496
-0.0398615
-0.0403432
-0.0406778
-0.0408542
-0.0408499
-0.0406569
-0.0402524
-0.0396295
-0.038762
-0.0376489
-0.0362603
-0.034605
-0.0326483
-0.0304141
-0.0278613
-0.0250354
-0.0218869
-0.0184906
-0.0147845
-0.0108805
-0.0066923
-0.00236342
-0.0152443
-0.0165043
-0.0177291
-0.0189406
-0.0201606
-0.0213961
-0.0226424
-0.0238913
-0.0251353
-0.0263684
-0.0275854
-0.0287808
-0.0299477
-0.0310789
-0.0321656
-0.0331991
-0.0341691
-0.0350658
-0.0358772
-0.0365923
-0.0371971
-0.0376802
-0.0380251
-0.0382203
-0.038247
-0.0380958
-0.0377449
-0.0371874
-0.0363984
-0.0353766
-0.0340937
-0.0325574
-0.0307348
-0.028648
-0.0262583
-0.0236075
-0.0206497
-0.017454
-0.0139632
-0.0102806
-0.0063271
-0.00223507
-0.013812
-0.0149942
-0.0161558
-0.0173115
-0.0184763
-0.0196546
-0.0208426
-0.0220336
-0.0232211
-0.0243999
-0.0255647
-0.0267103
-0.0278302
-0.0289175
-0.029964
-0.0309614
-0.0319001
-0.0327706
-0.0335615
-0.0342624
-0.0348598
-0.0353428
-0.0356956
-0.0359069
-0.0359595
-0.0358438
-0.035539
-0.0350382
-0.0343175
-0.0333754
-0.0321848
-0.0307526
-0.0290477
-0.0270902
-0.0248438
-0.0223471
-0.0195572
-0.0165382
-0.0132371
-0.00974998
-0.00600398
-0.00212147
-0.0125953
-0.0137113
-0.014819
-0.0159269
-0.0170444
-0.0181738
-0.0193119
-0.0204531