/*--------------------------------*- C++ -*----------------------------------*\
  =========                 |
  \\      /  F ield         | OpenFOAM: The Open Source CFD Toolbox
   \\    /   O peration     | Website:  https://openfoam.org
    \\  /    A nd           | Version:  7
     \\/     M anipulation  |
\*---------------------------------------------------------------------------*/
FoamFile
{
    version     2.0;
    format      ascii;
    class       surfaceScalarField;
    location    "25";
    object      phi;
}
// * * * * * * * * * * * * * * * * * * * * * * * * * * * * * * * * * * * * * //

dimensions      [0 3 -1 0 0 0 0];

internalField   nonuniform List<scalar> 
12578
(
-7.43959e-06
7.40687e-06
3.27224e-08
-2.65075e-05
1.89312e-05
1.36716e-07
-5.53011e-05
2.85187e-05
2.75007e-07
-9.1973e-05
3.62364e-05
4.35494e-07
-0.000134855
4.22708e-05
6.10815e-07
-0.000182595
4.69396e-05
8.0103e-07
-0.000234318
5.07091e-05
1.01391e-06
-0.000289826
5.42444e-05
1.26324e-06
-0.000349768
5.83755e-05
1.56617e-06
6.41913e-05
1.94331e-06
-0.000415902
-7.34929e-06
1.47562e-05
-2.6197e-05
3.77788e-05
-5.46539e-05
5.69756e-05
-9.08701e-05
7.24526e-05
-0.000133157
8.45573e-05
-0.000180121
9.39038e-05
-0.000230818
0.000101406
-0.000284961
0.000108388
-0.000343106
0.00011652
0.000127979
-0.000406893
-7.17064e-06
2.19268e-05
-2.55809e-05
5.61891e-05
-5.33671e-05
8.47617e-05
-8.86738e-05
0.000107759
-0.000129772
0.000125655
-0.000175185
0.000139317
-0.000223831
0.000150053
-0.000275245
0.000159801
-0.00032979
0.000171065
0.00018705
-0.000388861
-6.91068e-06
2.88375e-05
-2.468e-05
7.39584e-05
-5.14781e-05
0.00011156
-8.54404e-05
0.000141722
-0.000124778
0.000164993
-0.000167889
0.000182428
-0.000213488
0.000195652
-0.000260835
0.000207148
-0.000310009
0.00022024
0.000239034
-0.000361994
-6.57945e-06
3.54169e-05
-2.35235e-05
9.09024e-05
-4.904e-05
0.000137077
-8.12488e-05
0.00017393
-0.000118281
0.000202025
-0.000158373
0.00022252
-0.000199967
0.000237246
-0.000241947
0.000249128
-0.000284016
0.000262309
0.00028154
-0.000326523
-6.18933e-06
4.16063e-05
-2.21474e-05
0.000106861
-4.61174e-05
0.000161046
-7.61938e-05
0.000204007
-0.00011041
0.000236241
-0.000146802
0.000258912
-0.000183471
0.000273915
-0.000218818
0.000284475
-0.000252081
0.000295571
0.000312104
-0.000282644
-5.75426e-06
4.73605e-05
-2.05922e-05
0.000121698
-4.27811e-05
0.000183235
-7.03773e-05
0.000231603
-0.000101296
0.00026716
-0.00013334
0.000290955
-0.000164201
0.000304776
-0.000191669
0.000311943
-0.000214427
0.00031833
0.000328127
-0.00023045
-5.2889e-06
5.26494e-05
-1.88994e-05
0.000135309
-3.91028e-05
0.000203439
-6.38983e-05
0.000256398
-9.10614e-05
0.000294323
-0.000118127
0.000318021
-0.000142312
0.000328961
-0.000160645
0.000330276
-0.000171148
0.000328833
0.000326823
-0.000169845
-4.80771e-06
5.74571e-05
-1.71091e-05
0.00014761
-3.51487e-05
0.000221478
-5.6841e-05
0.000278091
-7.97954e-05
0.000317278
-0.000101243
0.000339469
-0.000117861
0.000345579
-0.000125733
0.000338148
-0.000122088
0.000325188
0.000305321
-0.000100586
-4.32412e-06
6.17813e-05
-1.5257e-05
0.000158543
-3.09727e-05
0.000237194
-4.92634e-05
0.000296381
-6.75363e-05
0.000335551
-8.26784e-05
0.000354611
-9.07611e-05
0.000353662
-8.66596e-05
0.000334046
-6.64728e-05
0.000305001
0.00026231
-2.34613e-05
-3.84978e-06
6.56311e-05
-1.33717e-05
0.000168065
-2.66115e-05
0.000250434
-4.11861e-05
0.000310956
-5.42505e-05
0.000348615
-6.22945e-05
0.000362654
-6.07531e-05
0.000352121
-4.30758e-05
0.000316369
4.95383e-07
0.00026143
0.000195466
6.73397e-05
-3.39392e-06
6.9025e-05
-1.14722e-05
0.000176143
-2.20787e-05
0.00026104
-3.25824e-05
0.00032146
-3.98122e-05
0.000355845
-3.97803e-05
0.000362623
-2.72181e-05
0.000339559
4.61593e-06
0.000284535
6.83921e-05
0.000197653
9.23755e-05
0.000171482
-2.96277e-06
7.19877e-05
-9.56627e-06
0.000182747
-1.73612e-05
0.000268835
-2.33714e-05
0.00032747
-2.39877e-05
0.000356461
-1.46223e-05
0.000353257
1.09957e-05
0.000313941
6.16737e-05
0.000233857
0.000150665
0.000108662
-4.85996e-05
0.00029164
-2.55904e-06
7.45468e-05
-7.64839e-06
0.000187836
-1.24165e-05
0.000273603
-1.34172e-05
0.000328471
-6.44715e-06
0.000349491
1.38685e-05
0.000332942
5.48468e-05
0.000272962
0.000127039
0.000161665
0.000247801
-1.20998e-05
-0.000232299
0.0004315
-2.18116e-06
-5.69742e-06
0.000191352
-7.16881e-06
0.000275075
-2.52292e-06
0.000323825
1.32372e-05
0.000333731
4.65476e-05
0.000299631
0.0001061
0.00021341
0.000204075
6.369e-05
0.000363442
-0.000171467
-0.000462868
0.000594012
-3.6736e-06
0.000193204
-1.49904e-06
0.0002729
9.56331e-06
0.000312762
3.55843e-05
0.00030771
8.43864e-05
0.000250829
0.000166424
0.000131373
0.000295541
-6.54276e-05
0.000501313
-0.000377239
-0.000742276
0.000780721
-1.51104e-06
0.000193245
4.7306e-06
0.000266659
2.31677e-05
0.000294325
6.12015e-05
0.000269676
0.000128445
0.000183585
0.000237572
2.22453e-05
0.000404194
-0.000232049
0.000663915
-0.00063696
-0.0010689
0.000990535
8.69449e-07
1.17392e-05
0.000255789
3.86905e-05
0.000267374
9.07842e-05
0.000217583
0.000179833
9.45365e-05
0.000321171
-0.000119093
0.0005326
-0.000443478
0.000851311
-0.000955671
-0.00143645
0.00121887
1.97827e-05
0.00023956
5.66129e-05
0.000230544
0.000125112
0.000149084
0.00023966
-2.00119e-05
0.000418512
-0.000297945
0.000682668
-0.000707634
0.00106051
-0.00133352
-0.00183709
0.00146115
2.91795e-05
7.74927e-05
0.000182231
0.00016502
6.15571e-05
0.000308939
-0.000163931
0.000530206
-0.000519212
0.00085356
-0.00103099
0.00128775
-0.0017677
-0.00227845
0.00172911
0.00010194
0.000211349
-4.78517e-05
0.000388451
-0.000341033
0.000655861
-0.000786622
0.00103888
-0.00141401
0.00152436
-0.00225318
-0.00299341
0.00223931
0.000264851
-0.000182132
0.000478583
-0.000554765
0.000794266
-0.00110231
0.001231
-0.00185074
0.00176441
-0.00278659
-0.00369624
0.00246725
0.000326028
0.000579022
-0.000807759
0.000942793
-0.00146608
0.00142379
-0.00233174
0.00199054
-0.00335334
-0.00436712
0.00266142
0.000688391
0.00109655
-0.00187423
0.00160965
-0.00284484
0.00218526
-0.00392896
-0.00499187
0.00281
0.00124874
0.00177794
-0.00337405
0.00233942
-0.00449044
-0.00555707
0.00290462
0.00191908
0.00244771
-0.00501906
-0.0060559
0.00294654
0.00250949
-0.0064881
0.00294169
0.0028975
0.00252866
0.00550285
0.0064889
0.00289833
0.00251024
0.00501966
0.0060566
0.00294255
0.00191962
0.00337427
0.00244842
0.00449085
0.00555761
0.00294741
0.00124898
0.00187409
0.00177839
0.00284486
0.00234008
0.00392917
0.0049922
0.00290548
0.000688417
0.000807461
0.0010967
0.00146581
0.00160999
0.00233157
0.00218582
0.00335334
0.0043672
0.00281081
0.000325949
0.000181846
0.000578986
0.000554424
0.000942855
0.00110194
0.00142402
0.00185041
0.00199098
0.00278638
0.00369604
0.00266214
0.000264744
4.75746e-05
0.000478498
0.000340671
0.00079425
0.000786189
0.00123112
0.00141354
0.00176472
0.00225278
0.00299293
0.00246784
0.000101835
-0.000182392
0.000211226
-6.18168e-05
0.000388334
0.000163563
0.000655786
0.000518737
0.00103891
0.00103042
0.00152455
0.00176714
0.00227773
0.00223974
2.91046e-05
-0.00023961
7.73882e-05
-0.000230676
0.000164894
-0.000149323
0.000308809
1.96483e-05
0.000530099
0.000297446
0.000853521
0.000706999
0.00128784
0.00133282
0.0018363
0.00172927
1.97145e-05
-0.00025581
5.65188e-05
-0.00026748
0.000124998
-0.000217802
0.000239539
-9.48923e-05
0.000418402
0.000118583
0.000682598
0.000442803
0.00106055
0.000954871
0.0014356
0.00146125
8.36464e-07
-0.000193198
1.16833e-05
-0.000266657
3.86158e-05
-0.000294412
9.06972e-05
-0.000269884
0.000179742
-0.000183937
0.000321088
-2.27628e-05
0.000532543
0.000231348
0.000851328
0.000636086
0.00106798
0.00121895
-1.53686e-06
-0.00019314
4.69143e-06
-0.000272885
2.31205e-05
-0.000312842
6.11532e-05
-0.000307916
0.000128403
-0.000251187
0.000237545
-0.000131904
0.00040419
6.47018e-05
0.000663969
0.000376308
0.000741289
0.000990655
-1.82934e-06
-7.66699e-05
-3.6891e-06
-0.000191281
-1.51777e-06
-0.000275056
9.5496e-06
-0.000323909
3.55842e-05
-0.000333951
8.44077e-05
-0.00030001
0.000166473
-0.00021397
0.000295624
-6.44491e-05
0.000501453
0.000170479
0.000461807
0.000780935
-2.18475e-06
-7.44852e-05
-5.70156e-06
-0.000187764
-7.16469e-06
-0.000273593
-2.49946e-06
-0.000328574
1.32909e-05
-0.000349741
4.66411e-05
-0.000333361
0.000106241
-0.00027357
0.000204267
-0.000162475
0.000363707
1.10398e-05
0.000231145
0.000594368
-2.55901e-06
-7.19262e-05
-7.64069e-06
-0.000182682
-1.23888e-05
-0.000268845
-1.33557e-05
-0.000327607
-6.33815e-06
-0.000356759
1.40371e-05
-0.000353736
5.50849e-05
-0.000314618
0.000127351
-0.000234741
0.000248213
-0.000109822
4.73253e-05
0.000432033
-2.95914e-06
-6.8967e-05
-9.54701e-06
-0.000176094
-1.73109e-05
-0.000261081
-2.32735e-05
-0.000321645
-2.3826e-05
-0.000356206
-1.43821e-05
-0.00036318
1.13253e-05
-0.000340325
6.21045e-05
-0.00028552
0.00015123
-0.000198948
-9.38078e-05
0.000292363
-3.38694e-06
-6.55801e-05
-1.14423e-05
-0.000168039
-2.20079e-05
-0.000250516
-3.24521e-05
-0.000311201
-3.9604e-05
-0.000349055
-3.9477e-05
-0.000363307
-2.6799e-05
-0.000353003
5.20454e-06
-0.000317524
6.90959e-05
-0.000262839
-0.000197097
0.000172385
-3.8399e-06
-6.17402e-05
-1.33328e-05
-0.000158546
-2.65237e-05
-0.000237325
-4.10292e-05
-0.000296695
-5.40049e-05
-0.000336079
-6.19407e-05
-0.000355371
-6.02714e-05
-0.000354672
-4.24644e-05
-0.000335331
1.18861e-06
-0.000306493
-0.000264318
6.84093e-05
-4.31193e-06
-5.74283e-05
-1.52112e-05
-0.000147647
-3.08721e-05
-0.000221664
-4.90871e-05
-0.00027848
-6.7264e-05
-0.000317902
-8.22891e-05
-0.000340346
-9.0233e-05
-0.000346728
-8.59695e-05
-0.000339594
-6.55354e-05
-0.000326927
-0.000307497
-2.23565e-05
-4.79391e-06
-5.26343e-05
-1.70588e-05
-0.000135382
-3.50401e-05
-0.000203683
-5.66534e-05
-0.000256867
-7.95083e-05
-0.000295047
-0.000100835
-0.000319019
-0.000117308
-0.000330256
-0.000125004
-0.000331898
-0.000121124
-0.000330807
-0.000329259
-9.93622e-05
-5.27427e-06
-4.73601e-05
-1.8847e-05
-0.000121809
-3.89914e-05
-0.000183538
-6.37078e-05
-0.00023215
-9.07721e-05
-0.000267983
-0.000117717
-0.000292074
-0.000141757
-0.000306216
-0.000159913
-0.000313742
-0.000170186
-0.000320533
-0.000330837
-0.000168608
-5.73958e-06
-4.16205e-05
-2.05404e-05
-0.000107008
-4.26721e-05
-0.000161407
-7.01924e-05
-0.00020463
-0.000101017
-0.000237158
-0.000132946
-0.000260145
-0.000163668
-0.000275494
-0.000190966
-0.000286444
-0.000213505
-0.000297994
-0.000315086
-0.000229256
-6.17538e-06
-3.54451e-05
-2.20988e-05
-9.10847e-05
-4.60156e-05
-0.00013749
-7.60223e-05
-0.000174623
-0.000110152
-0.000203028
-0.00014644
-0.000223857
-0.000182982
-0.000238952
-0.000218172
-0.000251254
-0.000251234
-0.000264933
-0.000284774
-0.000281545
-6.56695e-06
-2.88782e-05
-2.34801e-05
-7.41716e-05
-4.89501e-05
-0.00011202
-8.1098e-05
-0.000142476
-0.000118055
-0.000166071
-0.000158057
-0.000183856
-0.000199539
-0.000197469
-0.000241382
-0.000209412
-0.000283277
-0.000223038
-0.000242491
-0.000325561
-6.90026e-06
-2.19779e-05
-2.4644e-05
-5.64278e-05
-5.14039e-05
-8.52598e-05
-8.53164e-05
-0.000108563
-0.000124592
-0.000126795
-0.00016763
-0.000140819
-0.000213139
-0.000151959
-0.000260374
-0.000162177
-0.000309406
-0.000174006
-0.000190689
-0.000361207
-7.16281e-06
-1.48151e-05
-2.5554e-05
-3.80365e-05
-5.33117e-05
-5.75021e-05
-8.85816e-05
-7.32932e-05
-0.000129634
-8.57419e-05
-0.000174993
-9.54611e-05
-0.000223572
-0.000103379
-0.000274903
-0.000110846
-0.000329343
-0.000119566
-0.000131754
-0.000388278
-7.34443e-06
-7.47067e-06
-2.61803e-05
-1.92006e-05
-5.46197e-05
-2.90628e-05
-9.08132e-05
-3.70997e-05
-0.000133072
-4.34831e-05
-0.000180003
-4.85304e-05
-0.000230659
-5.27232e-05
-0.000284752
-5.67537e-05
-0.000342831
-6.1486e-05
-6.80498e-05
-0.000406536
-7.43795e-06
-2.65018e-05
-5.52896e-05
-9.19538e-05
-0.000134826
-0.000182555
-0.000234265
-0.000289755
-0.000349675
-0.000415782
-0.000447421
2.97749e-05
1.74406e-06
-0.00047935
2.99194e-05
2.00903e-06
-0.000511338
2.96733e-05
2.31471e-06
-0.000543321
2.93204e-05
2.66265e-06
-0.00057526
2.88874e-05
3.05227e-06
-0.000607134
2.83931e-05
3.48076e-06
-0.000638908
2.78317e-05
3.94213e-06
-0.000670533
2.71991e-05
4.42598e-06
-0.000701953
2.65037e-05
4.9164e-06
-0.000733111
2.57683e-05
5.38906e-06
-0.000763952
2.50292e-05
5.81177e-06
-0.000794429
2.43353e-05
6.14222e-06
-0.000824501
2.37449e-05
6.32749e-06
-0.00085413
2.33255e-05
6.30306e-06
-0.000883274
2.31507e-05
5.9934e-06
-0.000911884
2.32965e-05
5.31379e-06
-0.000939895
2.38365e-05
4.17367e-06
-0.000967211
2.48343e-05
2.4821e-06
-0.000993699
2.63339e-05
1.54539e-07
-0.00101917
2.83448e-05
-2.8726e-06
-0.00104336
3.08313e-05
-6.63838e-06
-0.00106592
3.36864e-05
-1.11343e-05
-0.00108634
3.67177e-05
-1.6299e-05
-0.00110398
3.96098e-05
-2.19617e-05
-0.00111802
4.19181e-05
-2.78857e-05
-0.00112745
4.29162e-05
-3.34819e-05
-0.00113103
4.164e-05
-3.80565e-05
-0.00112735
3.76076e-05
-4.12889e-05
-0.00111451
2.98848e-05
-4.27267e-05
-0.00109097
1.82487e-05
-4.1784e-05
-0.00105403
6.87864e-07
-3.76328e-05
-0.00100275
-2.09535e-05
-3.03216e-05
-0.000933494
-4.98909e-05
-1.93698e-05
-0.000847305
-8.06431e-05
-5.5465e-06
-0.000739054
-0.000118594
1.03429e-05
-0.000614582
-0.000151728
2.72566e-05
-0.000463209
-0.000193983
4.26099e-05
-0.000304977
-0.000213825
5.55927e-05
-0.000107635
-0.000261408
6.4067e-05
7.7009e-05
-0.000247502
6.28579e-05
0.000318602
-0.000305203
6.36094e-05
-0.000279798
2.72793e-05
-0.000437796
6.06775e-05
-0.000469139
6.12619e-05
-0.000500581
6.11158e-05
-0.000532053
6.0792e-05
-0.000563499
6.0334e-05
-0.000594886
5.97797e-05
-0.000626169
5.91147e-05
-0.000657292
5.83224e-05
-0.000688194
5.74057e-05
-0.000718813
5.63869e-05
-0.000749091
5.53075e-05
-0.000778979
5.42229e-05
-0.000808431
5.31975e-05
-0.000837407
5.23015e-05
-0.000865863
5.16066e-05
-0.000893747
5.11802e-05
-0.00092099
5.10792e-05
-0.000947496
5.13401e-05
-0.000973128
5.19669e-05
-0.000997699
5.2915e-05
-0.00102094
5.40755e-05
-0.0010425
5.52422e-05
-0.00106188
5.60967e-05
-0.00107844
5.61752e-05
-0.00109135
5.48282e-05
-0.00109963
5.11956e-05
-0.00110202
4.40259e-05
-0.00109712
3.27121e-05
-0.00108304
1.58026e-05
-0.00105824
-6.55051e-06
-0.0010203
-3.72581e-05
-0.000967913
-7.33366e-05
-0.000897725
-0.000120078
-0.00081078
-0.000167588
-0.000702015
-0.000227359
-0.000577355
-0.000276389
-0.000426029
-0.000345308
-0.000268193
-0.000371661
-7.12508e-05
-0.000458351
0.000112832
-0.000431585
0.000351311
-0.000543682
-0.000530238
-0.000418538
9.03555e-05
-0.000448712
9.14357e-05
-0.000479063
9.14666e-05
-0.00050951
9.12392e-05
-0.000539969
9.07925e-05
-0.000570379
9.01901e-05
-0.00060068
8.94152e-05
-0.0006308
8.84434e-05
-0.00066067
8.72755e-05
-0.000690219
8.59357e-05
-0.000719384
8.44723e-05
-0.000748109
8.29481e-05
-0.000776345
8.14333e-05
-0.000804044
8.00011e-05
-0.000831159
7.87209e-05
-0.000857631
7.7652e-05
-0.000883386
7.68343e-05
-0.000908324
7.62781e-05
-0.000932305
7.59483e-05
-0.000955138
7.57477e-05
-0.000976558
7.54962e-05
-0.000996207
7.48906e-05
-0.0010136
7.34888e-05
-0.00102811
7.06846e-05
-0.0010389
6.56228e-05
-0.00104502
5.7316e-05
-0.0010452
4.42071e-05
-0.00103815
2.56615e-05
-0.0010218
-5.49356e-07
-0.000995096
-3.3257e-05
-0.000955145
-7.72091e-05
-0.00090102
-0.000127461
-0.000829351
-0.000191748
-0.000741223
-0.000255716
-0.000631677
-0.000336905
-0.000506775
-0.000401291
-0.000355559
-0.000496524
-0.000198382
-0.000528837
8.72593e-07
-0.000657606
0.000180967
-0.000611679
0.00041458
-0.000777295
-0.000776982
-0.000389886
0.000118247
-0.000418345
0.000119895
-0.000447091
0.000120212
-0.000476031
0.000120179
-0.000505036
0.000119797
-0.000534011
0.000119165
-0.000562868
0.000118272
-0.000591518
0.000117093
-0.000619875
0.000115633
-0.00064786
0.000113921
-0.000675402
0.000112013
-0.000702436
0.000109982
-0.000728906
0.000107904
-0.000754758
0.000105853
-0.000779936
0.000103898
-0.000804372
0.000102089
-0.000827987
0.000100449
-0.000850672
9.89631e-05
-0.000872283
9.75591e-05
-0.000892624
9.60886e-05
-0.000911432
9.43048e-05
-0.000928352
9.18103e-05
-0.000942906
8.80431e-05
-0.000954485
8.2264e-05
-0.000962275
7.34122e-05
-0.00096534
6.03809e-05
-0.000962437
4.13048e-05
-0.000952194
1.5418e-05
-0.000933165
-1.95784e-05
-0.000903524
-6.28981e-05
-0.000860961
-0.000119772
-0.000804497
-0.000183925
-0.0007309
-0.000265345
-0.000641268
-0.000345347
-0.000530758
-0.000447415
-0.000405623
-0.000526426
-0.000254631
-0.000647516
-9.8676e-05
-0.000684793
9.45545e-05
-0.000850836
0.000278199
-0.000795324
0.000505798
-0.00100489
-0.00101853
-0.000352141
0.000143865
-0.000378399
0.000146153
-0.000405076
0.00014689
-0.000432073
0.000147176
-0.000459202
0.000146927
-0.000486325
0.000146288
-0.000513321
0.000145268
-0.000540077
0.000143849
-0.00056649
0.000142047
-0.00059247
0.0001399
-0.000617933
0.000137477
-0.00064281
0.000134859
-0.000667035
0.000132128
-0.000690543
0.000129361
-0.000713267
0.000126623
-0.000735133
0.000123954
-0.000756048
0.000121364
-0.000775896
0.000118811
-0.000794525
0.000116188
-0.000811734
0.000113298
-0.000827263
0.000109833
-0.000840759
0.000105307
-0.000851757
9.90411e-05
-0.00085967
9.01771e-05
-0.000863704
7.74461e-05
-0.000862953
5.96301e-05
-0.000856296
3.46473e-05
-0.000842236
1.35838e-06
-0.000819621
-4.21934e-05
-0.000786579
-9.59399e-05
-0.000740878
-0.000165473
-0.00068164
-0.000243163
-0.000605803
-0.000341183
-0.000514472
-0.000436678
-0.000402919
-0.000558968
-0.00027763
-0.000651714
-0.000126979
-0.000798167
2.69445e-05
-0.000838716
0.000217194
-0.00104109
0.000400613
-0.000978742
0.000621389
-0.00122567
-0.00125355
-0.000305606
0.000166827
-0.000329255
0.000169802
-0.00035347
0.000171105
-0.000378149
0.000171855
-0.00040304
0.000171818
-0.00042795
0.000171198
-0.000452722
0.00017004
-0.000477216
0.000168343
-0.000501313
0.000166144
-0.000524908
0.000163495
-0.00054791
0.000160479
-0.000570238
0.000157188
-0.000591818
0.000153708
-0.000612574
0.000150118
-0.000632429
0.000146477
-0.000651294
0.00014282
-0.000669065
0.000139135
-0.000685615
0.000135361
-0.000700781
0.000131354
-0.000714358
0.000126875
-0.000726085
0.00012156
-0.000735616
0.000114838
-0.000742498
0.000105924
-0.000746173
9.38517e-05
-0.00074587
7.71425e-05
-0.000740741
5.45018e-05
-0.000729545
2.34511e-05
-0.000711569
-1.66174e-05
-0.000684701
-6.90618e-05
-0.000647788
-0.000132853
-0.000598604
-0.000214657
-0.000536314
-0.000305452
-0.000458069
-0.000419428
-0.000364973
-0.000529774
-0.000252412
-0.000671528
-0.00012712
-0.000777007
2.33662e-05
-0.000948653
0.000176567
-0.000991917
0.000361736
-0.00122625
0.000543781
-0.00116079
0.00075717
-0.00143906
-0.00148096
-0.000250496
0.000186874
-0.000271241
0.000190547
-0.00029269
0.000192554
-0.000314756
0.000193921
-0.000337117
0.000194179
-0.00035952
0.000193601
-0.00038177
0.00019229
-0.0004037
0.000190273
-0.000425175
0.000187619
-0.000446079
0.000184399
-0.000466312
0.000180712
-0.000485784
0.000176661
-0.000504413
0.000172336
-0.000522111
0.000167815
-0.000538787
0.000163153
-0.000554339
0.000158371
-0.000568648
0.000153445
-0.000581573
0.000148286
-0.000592942
0.000142722
-0.000602538
0.000136471
-0.000610102
0.000129124
-0.000615296
0.000120031
-0.000617678
0.000108306
-0.000616721
9.28951e-05
-0.000611677
7.20988e-05
-0.000601796
4.462e-05
-0.000585882
7.53774e-06
-0.000563262
-3.92373e-05
-0.000532034
-0.000100291
-0.000490971
-0.000173915
-0.000438115
-0.000267513
-0.000372644
-0.000370923
-0.000291959
-0.000500114
-0.000197143
-0.00062459
-8.37163e-05
-0.000784954
4.13493e-05
-0.000902073
0.000190043
-0.00109735
0.000342476
-0.00114435
0.000523257
-0.00140704
0.000703107
-0.00134064
0.000908741
-0.00164469
-0.00169996
-0.000186841
0.00020387
-0.000204527
0.000208233
-0.000223025
0.000211052
-0.000242282
0.000213177
-0.000261908
0.000213806
-0.000281589
0.000213281
-0.000301092
0.000211793
-0.000320227
0.000209408
-0.000338849
0.000206241
-0.000356832
0.000202382
-0.000374072
0.000197952
-0.000390473
0.000193062
-0.000405942
0.000187804
-0.00042038
0.000182254
-0.000433683
0.000176456
-0.000445732
0.000170421
-0.000456393
0.000164106
-0.00046551
0.000157403
-0.000472894
0.000150107
-0.000478321
0.000141898
-0.00048153
0.000132333
-0.000482185
0.000120687
-0.000479861
0.000105982
-0.000474063
8.70967e-05
-0.000464071
6.2107e-05
-0.000449154
2.97026e-05
-0.000428499
-1.31166e-05
-0.00040105
-6.66866e-05
-0.000365247
-0.000136093
-0.000319946
-0.000219217
-0.000263377
-0.000324082
-0.00019473
-0.00043957
-0.000111684
-0.00058316
-1.49078e-05
-0.000721366
9.87535e-05
-0.000898616
0.000223305
-0.00102662
0.000370443
-0.00124448
0.00052101
-0.00129492
0.000697197
-0.00158322
0.000874158
-0.0015176
0.00107183
-0.00184237
-0.00190995
-0.000114372
0.000217657
-0.00012899
0.00022285
-0.000144533
0.000226595
-0.000160907
0.000229551
-0.000177701
0.0002306
-0.000194534
0.000230114
-0.000211147
0.000228406
-0.000227336
0.000225596
-0.000242952
0.000221857
-0.00025787
0.0002173
-0.000271983
0.000212065
-0.000285191
0.00020627
-0.000297392
0.000200006
-0.000308478
0.00019334
-0.000318329
0.000186307
-0.00032681
0.000178902
-0.00033377
0.000171066
-0.000339034
0.000162667
-0.000342397
0.00015347
-0.000343621
0.000143122
-0.000342444
0.000131155
-0.000338533
0.000116776
-0.000331472
9.8921e-05
-0.000320794
7.64189e-05
-0.000305848
4.7161e-05
-0.000285893
9.74662e-06
-0.000260434
-3.85749e-05
-0.000228168
-9.89523e-05
-0.000187822
-0.00017644
-0.000138309
-0.00026873
-7.8118e-05
-0.000384273
-5.9063e-06
-0.000511782
7.87794e-05
-0.000667846
0.0001764
-0.000818987
0.000290885
-0.0010131
0.000414668
-0.00115041
0.000559893
-0.00138971
0.000708158
-0.00144318
0.000879439
-0.0017545
0.00105289
-0.00169105
0.00124253
-0.002032
-0.0021106
-3.15603e-05
0.000225756
-4.40982e-05
0.000235388
-5.69482e-05
0.000239445
-7.05056e-05
0.000243108
-8.44932e-05
0.000244587
-9.84595e-05
0.000244081
-0.000112134
0.00024208
-0.000125308
0.000238771
-0.000137857
0.000234406
-0.000149656
0.000229099
-0.000160603
0.000223012
-0.000170597
0.000216264
-0.00017953
0.000208939
-0.000187283
0.000201093
-0.000193721
0.000192745
-0.000198692
0.000183873
-0.000202025
0.000174399
-0.000203527
0.000164168
-0.000202974
0.000152918
-0.000200112
0.00014026
-0.000194674
0.000125717
-0.000186329
0.000108431
-0.000174664
8.72557e-05
-0.000159242
6.09974e-05
-0.000139398
2.73172e-05
-0.000114794
-1.48576e-05
-8.45059e-05
-6.88631e-05
-4.75538e-05
-0.000135904
-2.75927e-06
-0.000221234
5.07063e-05
-0.000322195
0.000114246
-0.000447813
0.000188696
-0.000586231
0.00027588
-0.00075503
0.00037445
-0.000917557
0.000489061
-0.00112771
0.000611782
-0.00127313
0.000754693
-0.00153262
0.000900323
-0.00158881
0.0010664
-0.00192058
0.0012358
-0.00186046
0.00141744
-0.00221364
-0.00230173
6.09546e-05
0.000232141
5.08092e-05
0.000245534
4.04128e-05
0.000249841
2.94331e-05
0.000254088
1.81101e-05
0.00025591
6.95857e-06
0.000255232
-3.79431e-06
0.000252833
-1.40525e-05
0.000249029
-2.3589e-05
0.000243942
-3.23263e-05
0.000237836
-4.01796e-05
0.000230865
-4.70522e-05
0.000223136
-5.28321e-05
0.000214719
-5.7389e-05
0.00020565
-6.05731e-05
0.000195929
-6.22149e-05
0.000185515
-6.21233e-05
0.000174307
-6.00857e-05
0.000162131
-5.58579e-05
0.00014869
-4.91633e-05
0.000133565
-3.97329e-05
0.000116287
-2.72277e-05
9.59259e-05
-1.12224e-05
7.12504e-05
8.63107e-06
4.11439e-05
3.3043e-05
2.90527e-06
6.20049e-05
-4.38195e-05
9.6805e-05
-0.000103663
0.000138099
-0.000177198
0.000186882
-0.000270018
0.000244093
-0.000379406
0.000310841
-0.000514561
0.000387737
-0.000663127
0.000476593
-0.000843887
0.000575794
-0.00101676
0.000690138
-0.00124206
0.000811523
-0.00139451
0.000951708
-0.00167281
0.00109443
-0.00173154
0.00125505
-0.00208119
0.00141993
-0.00202534
0.00159369
-0.0023874
-0.00248333
0.000165778
0.000237845
0.000157294
0.000254017
0.000148745
0.000258391
0.000139819
0.000263014
0.000130816
0.000264914
0.000122198
0.00026385
0.000114146
0.000260886
0.00010677
0.000256405
0.000100129
0.000250583
9.4298e-05
0.000243667
8.9353e-05
0.00023581
8.53893e-05
0.0002271
8.25252e-05
0.000217583
8.09029e-05
0.000207272
8.06885e-05
0.000196143
8.20699e-05
0.000184134
8.52587e-05
0.000171118
9.04869e-05
0.000156903
9.80214e-05
0.000141155
0.000108163
0.000123424
0.000121182
0.000103268
0.00013743
7.96784e-05
0.000157319
5.13614e-05
0.000181315
1.71473e-05
0.000209421
-2.5201e-05
0.000242659
-7.70575e-05
0.000281525
-0.000142529
0.000326773
-0.000222445
0.000379227
-0.000322472
0.000439735
-0.000439914
0.000509228
-0.000584053
0.000588188
-0.000742088
0.000678326
-0.000934025
0.000777806
-0.00111624
0.000891474
-0.00135572
0.00101127
-0.0015143
0.00114833
-0.00180987
0.00128792
-0.00187112
0.00144289
-0.00223617
0.00160285
-0.0021853
0.00176894
-0.00255349
-0.00265551
0.00028583
0.000243655
0.000277442
0.000262406
0.000269742
0.00026609
0.00026224
0.000270516
0.000255111
0.000272043
0.000248716
0.000270244
0.000243094
0.000266508
0.00023824
0.000261259
0.000234163
0.00025466
0.000230897
0.000246934
0.0002285
0.000238207
0.000227067
0.000228533
0.000226722
0.000217928
0.000227622
0.000206372
0.000229949
0.000193816
0.000233911
0.000180172
0.000239738
0.000165292
0.00024768
0.00014896
0.000258029
0.000130807
0.000271112
0.00011034
0.000287202
8.71776e-05
0.000306673
6.02072e-05
0.000329927
2.81082e-05
0.000357247
-1.0173e-05
0.000388881
-5.68355e-05
0.00042564
-0.000113816
0.000468045
-0.000184934
0.000516714
-0.000271114
0.00057231
-0.000378068
0.00063562
-0.000503225
0.000707374
-0.000655807
0.000787943
-0.000822657
0.000878923
-0.001025
0.000978305
-0.00121562
0.00109087
-0.00146829
0.00120882
-0.00163225
0.00134241
-0.00194346
0.00147866
-0.00200736
0.00162788
-0.00238539
0.00178262
-0.00234004
0.00194128
-0.00271215
-0.00281848
0.00042327
0.000251885
0.000413443
0.000272233
0.000405504
0.000274029
0.000398655
0.000277365
0.000392841
0.000277857
0.000388197
0.000274888
0.000384541
0.000270164
0.000381731
0.00026407
0.000379706
0.000256684
0.000378466
0.000248174
0.00037806
0.000238613
0.000378587
0.000228007
0.000380183
0.000216331
0.000383022
0.000203533
0.000387304
0.000189534
0.000393253
0.000174223
0.00040112
0.000157425
0.000411171
0.000138909
0.000423718
0.00011826
0.000439122
9.49365e-05
0.000457663
6.86366e-05
0.00047963
3.82401e-05
0.00050572
2.01822e-06
0.000535494
-3.99475e-05
0.00057008
-9.14212e-05
0.000609753
-0.000153489
0.00065503
-0.000230211
0.000706484
-0.000322568
0.000764607
-0.000436192
0.000830128
-0.000568746
0.000903588
-0.000729266
0.000985242
-0.000904312
0.00107658
-0.00111634
0.00117546
-0.00131451
0.0012865
-0.00157933
0.00140237
-0.00174812
0.00153217
-0.00207327
0.00166492
-0.00214011
0.00180834
-0.00252881
0.00195766
-0.00248936
0.00210919
-0.00286369
-0.00297255
0.000580378
0.000265519
0.000567586
0.000285025
0.000558462
0.000283153
0.000551553
0.000284274
0.000546457
0.000282953
0.000542954
0.000278391
0.000540594
0.000272525
0.000539091
0.000265572
0.000538335
0.000257441
0.000538312
0.000248197
0.000539081
0.000237843
0.000540757
0.000226332
0.000543495
0.000213592
0.000547489
0.00019954
0.000552956
0.000184067
0.000560137
0.000167042
0.000569298
0.000148264
0.000580716
0.00012749
0.000594723
0.000104254
0.000611716
7.79429e-05
0.000631952
4.84007e-05
0.000655932
1.42607e-05
0.000683436
-2.54863e-05
0.000715433
-7.19441e-05
0.000752081
-0.000128069
0.000793928
-0.000195336
0.000841331
-0.000277615
0.000894845
-0.000376082
0.000954798
-0.000496144
0.00102186
-0.000635809
0.00109641
-0.00080381
0.00117857
-0.000986477
0.00126973
-0.0012075
0.00136771
-0.00141248
0.00147679
-0.00168841
0.00159035
-0.00186169
0.00171613
-0.00219904
0.00184525
-0.00226923
0.00198291
-0.00266647
0.0021267
-0.00263315
0.00227145
-0.00300844
-0.00311809
0.000758692
0.000287549
0.000742087
0.00030163
0.000731401
0.000293839
0.000723979
0.000291696
0.000718996
0.000287936
0.000715816
0.000281571
0.000713753
0.000274587
0.000712456
0.000266869
0.000711816
0.000258081
0.000711852
0.00024816
0.000712661
0.000237034
0.000714388
0.000224604
0.000717216
0.000210764
0.000721356
0.000195401
0.000727041
0.000178382
0.000734524
0.000159558
0.000744081
0.000138707
0.000755991
0.00011558
0.0007706
8.96448e-05
0.000788356
6.0187e-05
0.00080947
2.72873e-05
0.000834257
-1.05265e-05
0.000862867
-5.40962e-05
0.000895994
-0.000105072
0.000933936
-0.000166011
0.000977125
-0.000238525
0.00102584
-0.000326331
0.00108062
-0.000430865
0.00114165
-0.000557167
0.00120953
-0.000703689
0.00128449
-0.000878769
0.00136656
-0.00106855
0.00145699
-0.00129793
0.00155365
-0.00150914
0.00166039
-0.00179514
0.00177144
-0.00197274
0.00189303
-0.00232062
0.00201845
-0.00239466
0.00215046
-0.00279848
0.00228874
-0.00277143
0.00242706
-0.00314676
-0.00325553
0.000958786
0.000319298
0.000939342
0.000321074
0.000927765
0.000305415
0.000919688
0.000299774
0.000914035
0.000293589
0.000909913
0.000285692
0.000906623
0.000277877
0.000903907
0.000269586
0.000901756
0.000260232
0.000900277
0.000249639
0.000899632
0.00023768
0.000900004
0.000224231
0.000901603
0.000209165
0.000904651
0.000192353
0.000909391
0.000173642
0.000916077
0.000152872
0.000924986
0.000129798
0.000936391
0.000104175
0.000950644
7.53913e-05
0.000968186
4.26449e-05
0.000989318
6.15578e-06
0.00101389
-3.50947e-05
0.00104275
-8.29589e-05
0.00107619
-0.000138512
0.00111453
-0.000204352
0.00115819
-0.000282185
0.00120737
-0.000375509
0.00126258
-0.000486081
0.00132388
-0.000618467
0.00139182
-0.000771626
0.0014665
-0.000953453
0.00154787
-0.00114992
0.00163705
-0.00138711
0.001732
-0.0016041
0.00183606
-0.0018992
0.00194445
-0.00208113
0.00206177
-0.00243794
0.00218351
-0.0025164
0.00231004
-0.00292501
0.00244293
-0.00290432
0.00257523
-0.00327905
-0.0033854
0.00118059
0.000357579
0.00116285
0.000338805
0.00115233
0.000315937
0.00114336
0.000308747
0.00113553
0.000301419
0.00112831
0.000292912
0.00112145
0.000284733
0.00111502
0.000276022
0.00110918
0.00026607
0.00110417
0.000254648
0.00110022
0.000241634
0.00109753
0.000226914
0.00109634
0.00021036
0.00109685
0.000191838
0.00109931
0.000171184
0.00110396
0.000148227
0.00111105
0.000122701
0.00112085
9.43764e-05
0.0011337
6.25389e-05
0.00115012
2.62262e-05
0.00116993
-1.36527e-05
0.0011937
-5.88621e-05