/*--------------------------------*- C++ -*----------------------------------*\
  =========                 |
  \\      /  F ield         | OpenFOAM: The Open Source CFD Toolbox
   \\    /   O peration     | Website:  https://openfoam.org
    \\  /    A nd           | Version:  7
     \\/     M anipulation  |
\*---------------------------------------------------------------------------*/
FoamFile
{
    version     2.0;
    format      ascii;
    class       volVectorField;
    location    "25";
    object      U;
}
// * * * * * * * * * * * * * * * * * * * * * * * * * * * * * * * * * * * * * //

dimensions      [0 1 -1 0 0 0 0];

internalField   nonuniform List<vector> 
6386
(
(-0.00122172 0.00104783 3.17851e-21)
(-0.0067871 0.00239584 1.11489e-20)
(-0.0172059 0.00318094 -4.14638e-21)
(-0.0295455 0.00354984 2.92965e-21)
(-0.0427198 0.00361176 -2.13332e-20)
(-0.0558658 0.00346859 -9.16239e-21)
(-0.0683944 0.00321298 -1.95131e-21)
(-0.0800551 0.00292922 -2.8684e-20)
(-0.0908684 0.00268892 3.73163e-21)
(-0.10106 0.00255787 1.75872e-20)
(-0.00137319 0.00314544 -2.91007e-20)
(-0.00709603 0.0072248 -5.97534e-21)
(-0.0175382 0.00963392 1.77724e-20)
(-0.0298112 0.0107999 -6.65427e-20)
(-0.0428459 0.0110437 -8.2671e-21)
(-0.0557899 0.0106685 1.22272e-20)
(-0.0680583 0.00995355 4.38214e-21)
(-0.0794021 0.00915539 7.94981e-20)
(-0.0898385 0.00849407 -5.74694e-20)
(-0.0995557 0.00817255 9.484e-21)
(-0.00167247 0.00519181 5.59329e-20)
(-0.00770714 0.0119446 -7.58852e-21)
(-0.0181954 0.0159488 3.04547e-20)
(-0.0303349 0.0178983 6.82019e-20)
(-0.0430898 0.018318 1.39442e-19)
(-0.0556289 0.0177064 -1.00753e-19)
(-0.0673752 0.0165248 2.64342e-22)
(-0.078082 0.0152007 -7.74092e-20)
(-0.0877614 0.014107 9.83748e-20)
(-0.0965183 0.0135902 -9.33492e-20)
(-0.00211221 0.00715465 6.33091e-21)
(-0.0086072 0.0164856 -4.55629e-21)
(-0.0191642 0.0220361 3.41852e-20)
(-0.0311053 0.0247461 -4.91133e-20)
(-0.0434425 0.0253316 -3.7235e-20)
(-0.0553754 0.024476 1.77261e-19)
(-0.0663378 0.0228151 -5.43446e-20)
(-0.0760854 0.0209454 -1.56067e-19)
(-0.084627 0.0193998 -5.13593e-20)
(-0.0919205 0.0186782 6.92316e-20)
(-0.00268191 0.00900482 1.06978e-20)
(-0.00977689 0.0207832 4.45302e-20)
(-0.020425 0.0278118 -9.4944e-20)
(-0.0321045 0.0312488 1.11106e-19)
(-0.0438882 0.0319848 7.32495e-20)
(-0.0550153 0.0308743 -2.7309e-19)
(-0.0649314 0.0287164 2.31748e-19)
(-0.0733926 0.026273 1.39303e-19)
(-0.080414 0.0242471 4.75694e-20)
(-0.0857078 0.0233046 -1.53385e-20)
(-0.00336847 0.0107173 -7.75615e-20)
(-0.0111915 0.02478 -3.47539e-20)
(-0.0219515 0.0331986 2.98564e-20)
(-0.0333074 0.037318 -2.46501e-19)
(-0.0444031 0.038184 1.19689e-19)
(-0.0545244 0.0368041 -3.04144e-20)
(-0.0631287 0.0341264 1.68848e-21)
(-0.0699662 0.0310722 2.67532e-20)
(-0.0750814 0.0285273 -5.94926e-20)
(-0.0777822 0.0273385 -3.31935e-20)
(-0.00415689 0.012272 1.70538e-19)
(-0.0128216 0.0284267 -1.92558e-20)
(-0.0237106 0.0381277 1.17318e-19)
(-0.0346799 0.0428731 4.01217e-20)
(-0.0449517 0.0438421 -3.44413e-20)
(-0.0538638 0.0421752 -2.71958e-20)
(-0.060883 0.0389505 -1.88628e-20)
(-0.06574 0.0352399 -5.2051e-20)
(-0.0685575 0.0321253 2.83029e-20)
(-0.0679783 0.0306498 2.19206e-19)
(-0.00503102 0.0136537 -1.81286e-19)
(-0.0146339 0.0316829 1.1675e-19)
(-0.0256623 0.0425395 -2.1491e-19)
(-0.0361774 0.0478415 2.51244e-20)
(-0.0454831 0.0488804 6.05327e-20)
(-0.0529731 0.0469065 2.22382e-19)
(-0.0581184 0.0431054 -1.0323e-19)
(-0.0606048 0.0386865 1.73027e-19)
(-0.0607254 0.0349382 -1.1705e-19)
(-0.0560351 0.0331166 -1.51335e-19)
(-0.00597428 0.014853 1.49865e-19)
(-0.016592 0.0345178 -7.17532e-20)
(-0.0277594 0.0463839 -1.76164e-19)
(-0.0377422 0.0521601 1.62165e-20)
(-0.0459265 0.0532293 -3.02315e-19)
(-0.0517626 0.0509279 -1.82477e-20)
(-0.0547177 0.046522 1.34106e-20)
(-0.0543875 0.0413419 -8.66429e-20)
(-0.0514002 0.0368796 2.0053e-19)
(-0.0415848 0.0346761 8.00965e-20)
(-0.00697037 0.0158652 -1.16944e-19)
(-0.0186566 0.0369092 -1.79648e-19)
(-0.0299462 0.0496206 4.54297e-19)
(-0.0393009 0.0557749 1.66689e-19)
(-0.046185 0.056829 5.36158e-20)
(-0.0501028 0.0541816 1.165e-19)
(-0.0505074 0.0491489 -1.3104e-19)
(-0.0468251 0.0431557 2.06788e-20)
(-0.0402464 0.0378222 -3.28117e-19)
(-0.0242205 0.0354486 3.03207e-20)
(-0.00800377 0.0166901 3.1621e-20)
(-0.0207865 0.0388435 8.79882e-20)
(-0.0321581 0.0522183 -5.95008e-19)
(-0.0407612 0.0586411 -8.27791e-20)
(-0.04613 0.0596297 8.17359e-20)
(-0.0478147 0.0566242 -3.80892e-19)
(-0.0452463 0.0509592 -1.21075e-20)
(-0.0375809 0.0441116 -8.57224e-21)
(-0.0265913 0.0374892 -1.20816e-19)
(-0.0034541 0.0356141 1.81168e-20)
(-0.00906014 0.0173315 -3.20713e-20)
(-0.0229379 0.040314 1.57293e-19)
(-0.03432 0.054154 3.94387e-19)
(-0.0420083 0.0607221 -1.90294e-19)
(-0.0455934 0.0615915 1.44077e-20)
(-0.0446557 0.0582284 -1.44998e-19)
(-0.0386003 0.0519611 -3.66928e-20)
(-0.0263457 0.0443006 3.43242e-19)
(-0.00969006 0.0361042 2.78273e-19)
(0.0221098 0.0350309 -3.48746e-20)
(-0.0101265 0.0177961 3.44824e-20)
(-0.0250645 0.0413199 6.71337e-20)
(-0.0363441 0.0554117 -3.52369e-19)
(-0.0429005 0.0619894 1.38469e-19)
(-0.0443601 0.062683 1.46126e-19)
(-0.0403048 0.0589803 5.05525e-19)
(-0.0300623 0.052192 2.71591e-19)
(-0.0124212 0.0438126 -1.35585e-19)
(0.0110073 0.0340905 -3.57239e-20)
(0.0539241 0.0337786 -1.74018e-19)
(-0.011191 0.0180926 2.34052e-19)
(-0.027116 0.0418647 -3.46229e-19)
(-0.0381284 0.0559821 5.23573e-19)
(-0.0432657 0.0624218 -1.82363e-19)
(-0.0421628 0.062881 -1.81848e-19)
(-0.0343669 0.0588722 -5.65618e-19)
(-0.0190628 0.0516857 -3.69145e-19)
(0.00512686 0.0427178 2.03539e-19)
(0.0367037 0.0315534 3.02394e-19)
(0.0933208 0.0326478 3.12734e-19)
(-0.0122427 0.0182305 -2.05522e-19)
(-0.0290373 0.0419552 -8.64023e-20)
(-0.0395528 0.0558614 1.17818e-20)
(-0.0428968 0.0620071 2.26925e-20)
(-0.0386753 0.0621731 4.71595e-19)
(-0.0263511 0.0579122 1.84762e-20)
(-0.00490074 0.0505191 3.59564e-19)
(0.0272564 0.0412522 -3.20399e-19)
(0.068951 0.0286744 -6.21842e-19)
(0.141684 0.0325705 -2.99521e-19)
(-0.0307651 0.0415995 5.33252e-19)
(-0.0404757 0.0550525 8.28673e-21)
(-0.0415464 0.0607452 -2.83142e-19)
(-0.0335069 0.0605624 1.74156e-19)
(-0.015672 0.0561253 -2.94038e-19)
(0.0132724 0.0487851 -6.05579e-20)
(0.0550384 0.0396529 1.51087e-19)
(0.109513 0.0258915 1.90451e-19)
(0.19997 0.0345578 1.47207e-19)
(-0.0322251 0.0408065 -2.63562e-19)
(-0.0407297 0.0535681 -2.40575e-19)
(-0.0389205 0.0586517 -3.3101e-20)
(-0.0261969 0.0580754 1.64364e-19)
(-0.00164969 0.0535657 5.55053e-19)
(0.0364239 0.0466115 4.52879e-19)
(0.0896289 0.0381352 6.60846e-20)
(0.160287 0.0239719 5.48242e-19)
(0.267934 0.0396049 2.44459e-19)
(-0.033327 0.0395866 4.81371e-19)
(-0.0401156 0.0514309 1.19698e-19)
(-0.034673 0.0557633 4.78751e-19)
(-0.0162088 0.0547757 -1.76315e-19)
(0.0164882 0.0503369 -5.46386e-19)
(0.0656106 0.0441806 -2.75154e-19)
(0.13223 0.0368833 -3.1097e-19)
(0.223045 0.0242336 -6.65912e-19)
(0.343281 0.0485482 -8.17153e-20)
(-0.0383937 0.0486725 -3.2362e-19)
(-0.0283996 0.052147 -2.09782e-19)
(-0.00292897 0.0507779 -8.35503e-20)
(0.039597 0.046614 -2.10575e-20)
(0.101926 0.0417496 8.49754e-20)
(0.18412 0.0360706 1.3671e-19)
(0.298993 0.0285951 2.32392e-19)
(0.421997 0.0608439 -3.90262e-19)
(-0.0352842 0.0453398 1.67803e-19)
(-0.0196348 0.0479072 2.74328e-19)
(0.0143276 0.0462611 -1.79855e-19)
(0.0685843 0.0426666 4.33643e-19)
(0.146382 0.0396664 -1.47197e-19)
(0.246542 0.0360361 -7.3163e-20)
(0.387817 0.0385429 1.17144e-20)
(0.501689 0.0704116 1.25992e-19)
(-0.00785661 0.043189 -2.02651e-19)
(0.0362987 0.0414778 1.62417e-19)
(0.104357 0.0388771 -1.44313e-19)
(0.199755 0.0383967 6.04519e-19)
(0.320136 0.0375897 -1.59038e-19)
(0.485461 0.0525459 3.2574e-19)
(0.587855 0.067726 -1.59294e-19)
(0.063743 0.0367557 -3.53484e-19)
(0.147747 0.035745 -4.67739e-19)
(0.262497 0.0385498 -4.6122e-19)
(0.404316 0.0419766 6.31065e-20)
(0.584102 0.0649081 2.26477e-19)
(0.70943 0.0686459 -6.01185e-20)
(0.0973894 0.032489 6.63294e-19)
(0.199395 0.0338574 4.97661e-19)
(0.334618 0.0408208 9.7693e-20)
(0.496996 0.0500621 -2.64848e-21)
(0.685066 0.0775884 -5.99909e-20)
(0.827784 0.0840829 8.67097e-19)
(0.259599 0.0338358 -5.71535e-19)
(0.415414 0.0458725 2.38608e-19)
(0.595014 0.0618541 1.0942e-19)
(0.785717 0.0924631 -7.48997e-19)
(0.931845 0.103431 -1.29997e-19)
(0.503225 0.0541856 -2.45516e-19)
(0.694614 0.0768599 2.62482e-19)
(0.881197 0.109409 1.81768e-20)
(1.02107 0.123327 -1.33991e-19)
(0.791741 0.0943551 9.08708e-20)
(0.967651 0.127545 7.96579e-20)
(1.09362 0.142536 -6.96409e-20)
(1.04254 0.145927 1.24847e-19)
(1.15042 0.160239 3.56481e-19)
(1.19322 0.176215 -1.40282e-19)
(1.1051 -0.163926 -8.74814e-20)
(1.19343 -0.176346 -5.56106e-19)
(1.04273 -0.146042 -8.96617e-20)
(1.15063 -0.160371 5.58787e-19)
(0.791861 -0.0944404 -4.47953e-19)
(0.967817 -0.127654 3.57136e-19)
(1.09382 -0.142667 -1.42179e-19)
(0.503246 -0.0542364 -6.95255e-20)
(0.694692 -0.0769352 7.79063e-20)
(0.881329 -0.109511 -5.58996e-20)
(1.02124 -0.123455 -3.46771e-20)
(0.259552 -0.0338628 -1.7727e-19)
(0.415399 -0.045916 2.52297e-19)
(0.595049 -0.0619199 3.17688e-19)
(0.785809 -0.0925569 -6.7486e-19)
(0.931978 -0.103553 -2.54743e-19)
(0.0973213 -0.0325025 -1.7482e-19)
(0.199331 -0.0338799 6.6516e-19)
(0.334573 -0.0408586 -7.63867e-20)
(0.496988 -0.0501198 7.54867e-21)
(0.685116 -0.0776754 2.71652e-19)
(0.827869 -0.0841973 4.36144e-19)
(0.063671 -0.0367657 -5.14042e-19)
(0.14767 -0.0357644 -2.87465e-19)
(0.262429 -0.0385843 -5.28958e-19)
(0.404271 -0.0420291 -1.38104e-19)
(0.58411 -0.0649903 2.87089e-19)
(0.709458 -0.0687531 -4.58389e-20)
(-0.00791198 -0.0431901 7.32372e-20)
(0.0362265 -0.0414856 -5.00059e-20)
(0.104274 -0.0388956 7.47532e-20)
(0.199671 -0.0384305 6.75722e-19)
(0.320063 -0.0376413 -8.11925e-20)
(0.485433 -0.0526249 -1.40238e-20)
(0.587829 -0.0678332 -1.43494e-19)
(-0.0353141 -0.0453336 2.80687e-19)
(-0.0196848 -0.0479058 -1.07119e-19)
(0.0142588 -0.0462687 7.41121e-20)
(0.0685008 -0.0426868 4.4765e-19)
(0.146291 -0.0397029 -4.26018e-19)
(0.246451 -0.0360912 3.11737e-19)
(0.387754 -0.0386211 -3.24383e-19)
(0.501641 -0.0705178 1.4062e-19)
(-0.038417 -0.0486631 -4.77692e-19)
(-0.0284425 -0.052145 -2.29538e-19)
(-0.00299103 -0.0507879 1.30959e-20)
(0.0395185 -0.0466391 -4.4067e-20)
(0.101835 -0.0417928 1.94202e-19)
(0.184024 -0.0361338 -6.37802e-20)
(0.298909 -0.0286792 2.94434e-19)
(0.421934 -0.0609482 -3.77406e-19)
(-0.0333285 -0.0395721 -1.53725e-19)
(-0.0401323 -0.0514197 5.20954e-19)
(-0.0347076 -0.055763 2.25692e-19)
(-0.0162614 -0.0547909 6.89651e-20)
(0.0164196 -0.0503705 -5.84412e-19)
(0.0655287 -0.0442347 -4.45987e-19)
(0.132139 -0.036959 -3.01919e-19)
(0.222956 -0.024331 -5.93857e-19)
(0.34321 -0.0486564 -2.88053e-19)
(-0.0322224 -0.0407893 -3.86077e-19)
(-0.0407398 -0.0535571 -1.21793e-19)
(-0.0389461 -0.0586556 5.58722e-20)
(-0.0262378 -0.058099 -4.76205e-20)
(-0.0017045 -0.0536114 7.36777e-19)
(0.0363571 -0.0466807 3.77065e-19)
(0.0895514 -0.038228 1.96191e-19)
(0.160207 -0.0240888 3.64177e-19)
(0.267866 -0.0397265 1.21212e-19)
(-0.0132628 -0.0182053 -7.5429e-20)
(-0.0307591 -0.041581 5.01562e-19)
(-0.0404796 -0.0550439 -3.31527e-20)
(-0.0415627 -0.060756 -1.94815e-19)
(-0.0335349 -0.0605974 9.31213e-20)
(-0.0157102 -0.0561865 -1.18014e-19)
(0.0132254 -0.0488733 -3.07379e-19)
(0.0549827 -0.0397667 1.20147e-19)
(0.109454 -0.0260331 3.72503e-19)
(0.199918 -0.034702 1.73694e-20)
(-0.0122342 -0.0182151 -9.75865e-20)
(-0.0290288 -0.0419371 -1.68644e-19)
(-0.0395513 -0.0558573 -1.74238e-19)
(-0.042904 -0.0620273 9.81657e-20)
(-0.03869 -0.0622223 3.43194e-19)
(-0.0263715 -0.0579918 3.55212e-19)
(-0.0049251 -0.0506293 1.24563e-19)
(0.0272272 -0.0413903 -4.08793e-19)
(0.0689208 -0.0288451 -3.43954e-19)
(0.141659 -0.0327451 -3.6857e-19)
(-0.0111823 -0.0180767 2.85638e-19)
(-0.0271059 -0.0418487 -3.58347e-19)
(-0.0381224 -0.0559848 2.36653e-19)
(-0.0432646 -0.0624538 2.08539e-19)
(-0.0421647 -0.0629467 -4.64013e-19)
(-0.0343695 -0.0589725 -4.03932e-19)
(-0.0190636 -0.0518202 -4.85363e-19)
(0.00512594 -0.0428821 1.80065e-19)
(0.0367066 -0.0317564 1.86515e-19)
(0.0933336 -0.0328582 5.21478e-19)
(-0.0101181 -0.0177807 -2.04416e-19)
(-0.0250537 -0.0413078 8.60179e-20)
(-0.0363347 -0.0554233 -2.7218e-19)
(-0.0428921 -0.0620352 2.20239e-19)
(-0.0443503 -0.0627671 3.26076e-20)
(-0.0402907 -0.0591029 6.27138e-19)
(-0.0300404 -0.0523522 2.94261e-19)
(-0.0123956 -0.044005 -1.54674e-19)
(0.0110435 -0.0343277 -6.30684e-20)
(0.0539778 -0.0340278 4.51032e-21)
(-0.00905246 -0.0173175 -9.01407e-20)
(-0.0229274 -0.0403075 2.25755e-19)
(-0.0343081 -0.0541761 2.859e-19)
(-0.041994 -0.0607834 -3.03163e-20)
(-0.0455736 -0.0616953 -2.80232e-19)
(-0.0446269 -0.0583743 -2.54207e-21)
(-0.0385587 -0.0521481 9.10995e-20)
(-0.0262985 -0.0445243 1.79739e-19)
(-0.00962036 -0.0363721 3.38411e-19)
(0.0222027 -0.0353221 -9.78216e-21)
(-0.00799713 -0.0166783 -3.23086e-20)
(-0.0207767 -0.038844 1.63436e-20)
(-0.0321448 -0.0522526 -4.4229e-19)
(-0.0407425 -0.0587189 -1.72215e-19)
(-0.0461024 -0.0597539 6.26714e-20)
(-0.0477743 -0.0567935 -4.04249e-19)
(-0.0451899 -0.051172 1.98271e-19)
(-0.0375136 -0.0443654 -2.62492e-19)
(-0.0264887 -0.0377809 -1.19026e-19)
(-0.00333154 -0.0359545 1.83175e-19)
(-0.00696495 -0.0158563 -8.71463e-20)
(-0.0186481 -0.036918 -1.38201e-19)
(-0.0299324 -0.049668 4.67451e-19)
(-0.0392792 -0.0558701 6.88973e-20)
(-0.0461517 -0.0569736 3.05756e-19)
(-0.0500539 -0.0543739 -3.44688e-20)
(-0.0504395 -0.0493869 -6.26401e-20)
(-0.0467387 -0.043437 -8.09686e-20)
(-0.0401253 -0.0381403 -3.16619e-19)
(-0.0240738 -0.035831 -7.11732e-20)
(-0.00597015 -0.0148476 1.12189e-19)
(-0.0165849 -0.0345356 -1.56113e-19)
(-0.0277458 -0.046445 -2.14038e-20)
(-0.0377189 -0.0522726 -4.37786e-20)
(-0.0458898 -0.053394 -2.89203e-19)
(-0.0517085 -0.0511424 -7.36908e-22)
(-0.0546427 -0.0467841 -8.21829e-20)
(-0.0542897 -0.0416502 4.37491e-20)
(-0.0512699 -0.0372313 1.96141e-19)
(-0.0414214 -0.0350872 5.81007e-20)
(-0.00502812 -0.0136523 -2.06682e-19)
(-0.0146285 -0.0317103 1.67701e-19)
(-0.0256495 -0.0426144 -2.08218e-19)
(-0.036154 -0.0479709 1.06246e-20)
(-0.0454452 -0.0490641 1.15357e-20)
(-0.0529171 -0.0471418 2.67699e-19)
(-0.0580407 -0.04339 -5.33693e-20)
(-0.0605028 -0.0390198 -1.43397e-20)
(-0.0605921 -0.0353205 7.13265e-20)
(-0.0558658 -0.0335574 -3.29611e-19)
(-0.00415508 -0.0122745 2.20971e-19)
(-0.0128176 -0.0284636 -1.2236e-19)
(-0.023699 -0.0382161 1.23688e-19)
(-0.0346574 -0.0430184 6.91482e-20)
(-0.0449146 -0.0440435 2.69841e-20)
(-0.0538087 -0.0424295 -6.40896e-20)
(-0.0608068 -0.0392555 -8.717e-20)
(-0.0656397 -0.0355957 -9.4734e-20)
(-0.0684274 -0.032534 1.69576e-19)
(-0.0678128 -0.0311194 1.23551e-19)
(-0.00336755 -0.0107239 -5.77009e-20)
(-0.0111889 -0.0248261 2.97645e-20)
(-0.0219415 -0.0332995 1.72447e-20)
(-0.0332868 -0.037478 -2.22374e-19)
(-0.0443687 -0.0384014 4.43707e-20)
(-0.0544731 -0.0370754 4.4192e-20)
(-0.0630578 -0.0344495 -9.21832e-20)
(-0.0698728 -0.0314478 4.83394e-20)
(-0.0749607 -0.0289588 -3.89484e-20)
(-0.0776284 -0.027834 -8.0645e-20)
(-0.00268163 -0.00901513 -4.70378e-20)
(-0.0097753 -0.0208377 1.74916e-20)
(-0.0204168 -0.0279238 -3.7419e-20)
(-0.0320867 -0.0314216 1.21336e-19)
(-0.043858 -0.032216 -2.62199e-20)
(-0.0549701 -0.0311601 -1.87345e-19)
(-0.0648689 -0.0290549 1.18885e-19)
(-0.0733104 -0.0266654 2.05143e-19)
(-0.080308 -0.0246979 6.65521e-20)
(-0.0855727 -0.0238222 -1.8443e-21)
(-0.00211231 -0.00716822 -1.38372e-20)
(-0.00860637 -0.0165473 4.87843e-20)
(-0.0191578 -0.0221576 -9.66609e-20)
(-0.0310908 -0.0249296 3.58443e-20)
(-0.0434177 -0.0255741 -5.97356e-20)
(-0.0553383 -0.0247736 1.51705e-19)
(-0.0662865 -0.0231661 -8.13431e-20)
(-0.0760178 -0.0213516 -7.36151e-20)
(-0.0845401 -0.0198662 -1.17881e-19)
(-0.0918097 -0.0192137 1.09509e-19)
(-0.00167273 -0.00520799 5.18071e-20)
(-0.00770678 -0.012012 -2.51512e-20)
(-0.0181908 -0.0160777 4.3678e-20)
(-0.0303242 -0.0180902 5.94172e-20)
(-0.0430714 -0.0185693 1.33379e-19)
(-0.0556014 -0.0180131 -1.00163e-19)
(-0.0673371 -0.0168854 2.63685e-20)
(-0.0780318 -0.0156172 -8.32535e-20)
(-0.0876969 -0.0145853 7.89858e-20)
(-0.0964361 -0.0141394 -7.17024e-20)
(-0.00137343 -0.00316345 -1.70548e-20)
(-0.00709591 -0.00729613 5.86165e-21)
(-0.0175355 -0.00976795 6.7909e-21)
(-0.0298047 -0.0109974 -4.97058e-20)
(-0.0428346 -0.0113008 -2.68608e-20)
(-0.0557729 -0.0109813 2.80791e-20)
(-0.0680349 -0.0103205 4.5298e-21)
(-0.0793712 -0.00957891 8.77477e-20)
(-0.0897989 -0.00898027 -6.74797e-20)
(-0.0995052 -0.00873106 -2.21397e-20)
(-0.00122181 -0.00106677 -2.88075e-21)
(-0.00678708 -0.00246919 9.17118e-21)
(-0.017205 -0.00331757 -5.72349e-21)
(-0.0295433 -0.00375016 4.4283e-21)
(-0.042716 -0.00387191 -2.12006e-20)
(-0.05586 -0.00378447 -5.13098e-21)
(-0.0683865 -0.00358317 -6.70164e-21)
(-0.0800447 -0.00335625 -2.13847e-20)
(-0.090855 -0.00317911 -1.54898e-21)
(-0.101043 -0.00312101 2.31837e-20)
(-0.110033 0.00261967 -1.09983e-21)
(-0.118334 0.00252516 4.37545e-21)
(-0.126636 0.00239815 9.22797e-23)
(-0.134965 0.00226483 -4.54601e-21)
(-0.143314 0.00212855 5.25255e-21)
(-0.151676 0.00199158 -2.08919e-22)
(-0.160046 0.00185426 -8.95714e-22)
(-0.168415 0.00171741 -9.75285e-22)
(-0.176769 0.00158302 8.33309e-22)
(-0.185096 0.00145436 1.85319e-21)
(-0.193382 0.00133569 -1.97436e-21)
(-0.201616 0.00123211 -5.49192e-22)
(-0.209788 0.00114924 6.09263e-22)
(-0.217889 0.00109309 3.94073e-22)
(-0.225912 0.0010697 -4.19619e-22)
(-0.233845 0.00108479 8.97627e-23)
(-0.241677 0.00114327 -1.77559e-21)
(-0.249388 0.00124862 8.91267e-22)
(-0.25695 0.00140217 8.02572e-22)
(-0.264325 0.00160256 -1.16823e-21)
(-0.271453 0.0018443 2.03562e-21)
(-0.278257 0.00211743 -4.46537e-23)
(-0.284621 0.00240654 -2.7694e-21)
(-0.290402 0.00268995 1.79632e-21)
(-0.295394 0.00294015 9.19734e-22)
(-0.299356 0.00310093 -1.59362e-21)
(-0.301976 0.00312447 5.41229e-22)
(-0.302917 0.00299171 9.76366e-22)
(-0.301641 0.00266542 6.90737e-23)
(-0.297823 0.00215461 -6.92008e-22)
(-0.290561 0.00140843 7.69064e-22)
(-0.279857 0.000391327 1.35443e-21)
(-0.264137 -0.000868523 -6.89603e-23)
(-0.244341 -0.0021828 -8.85171e-22)
(-0.21816 -0.00367797 2.40033e-22)
(-0.186921 -0.00496551 3.77212e-22)
(-0.1512 -0.00636889 -3.04934e-22)
(-0.102975 -0.00702799 3.29967e-22)
(-0.0679494 -0.00821325 -3.86455e-22)
(0.0121888 -0.00760701 -3.00779e-22)
(0.0276903 -0.008743 -7.13472e-23)
(0.16104 -0.00708731 1.07885e-23)
(-0.108222 0.00843562 -3.13847e-20)
(-0.116398 0.0082276 1.34888e-20)
(-0.124545 0.00793265 3.19163e-21)
(-0.132726 0.0076255 1.21798e-20)
(-0.140935 0.00731441 -6.98539e-21)
(-0.149159 0.00700474 1.12569e-21)
(-0.15739 0.0066953 -7.4516e-21)
(-0.165617 0.00638519 -2.04247e-21)
(-0.173826 0.00607588 -1.8003e-21)
(-0.182001 0.00577102 -2.34916e-21)
(-0.19013 0.00547599 1.72774e-20)
(-0.198199 0.00519713 -2.25524e-20)
(-0.206199 0.00494113 3.90262e-21)
(-0.21412 0.00471459 1.4906e-20)
(-0.221953 0.0045235 -1.30493e-20)
(-0.229687 0.00437282 -1.26421e-22)
(-0.237308 0.00426588 1.08828e-20)
(-0.244798 0.00420375 2.30124e-21)
(-0.252127 0.00418444 -8.69924e-21)
(-0.259253 0.00420193 -1.3655e-21)
(-0.26612 0.00424558 6.17773e-21)
(-0.272645 0.00429839 -1.00832e-21)
(-0.278716 0.00433679 1.07287e-21)
(-0.284186 0.00432811 1.30289e-22)
(-0.28885 0.00423276 -3.59285e-21)
(-0.292467 0.00399687 2.83803e-23)
(-0.294721 0.00355139 -7.81548e-23)
(-0.295282 0.0028771 2.43846e-21)
(-0.293603 0.00191584 -9.7411e-22)
(-0.289378 0.000719697 2.31521e-21)
(-0.281717 -0.000898284 2.68154e-22)
(-0.270653 -0.00277272 -3.67723e-22)
(-0.254536 -0.00505172 1.22725e-22)
(-0.23446 -0.00725158 1.55365e-21)
(-0.207966 -0.00986633 -1.19443e-21)
(-0.176615 -0.0118648 1.68921e-22)
(-0.140749 -0.0145071 -4.82826e-22)
(-0.092609 -0.0152697 -7.17406e-22)
(-0.0575795 -0.0181778 2.78542e-22)
(0.0219943 -0.0166474 -1.19258e-22)
(0.0376799 -0.0201409 1.41654e-22)
(0.169706 -0.0187202 -1.4135e-23)
(-0.104575 0.014069 2.22501e-20)
(-0.112503 0.0137564 -4.05321e-20)
(-0.120341 0.0133094 2.53578e-20)
(-0.128227 0.0128414 5.59009e-21)
(-0.136158 0.0123638 4.42735e-21)
(-0.144106 0.0118864 -1.99063e-20)
(-0.15206 0.0114075 1.18522e-20)
(-0.160005 0.0109251 -1.75325e-20)
(-0.167923 0.0104408 4.20134e-20)
(-0.175797 0.00995892 -2.83498e-20)
(-0.183613 0.00948619 1.47454e-20)
(-0.191356 0.00903032 -3.75312e-21)
(-0.199015 0.00859914 3.40213e-21)
(-0.206579 0.00819987 -3.75938e-21)
(-0.214037 0.0078385 -1.25916e-20)
(-0.221378 0.00751925 6.58811e-21)
(-0.228585 0.00724395 -9.39907e-21)
(-0.235638 0.00701132 4.61701e-21)
(-0.242505 0.00681607 -2.81333e-21)
(-0.249144 0.00664797 -2.53002e-21)
(-0.255495 0.00649102 5.56675e-21)
(-0.261476 0.00632124 8.66428e-22)
(-0.266973 0.00610689 -2.1289e-22)
(-0.271839 0.00580719 -4.05302e-21)
(-0.275871 0.00537016 8.99912e-21)
(-0.278832 0.0047384 -2.13378e-21)
(-0.2804 0.00382705 -1.30442e-21)
(-0.280258 0.00262287 2.8446e-21)
(-0.277852 0.00110204 -4.74335e-21)
(-0.272936 -0.000879653 -3.1862e-21)
(-0.26457 -0.0033809 5.05519e-21)
(-0.252873 -0.00606794 -5.40753e-21)
(-0.236099 -0.00934335 1.13615e-22)
(-0.215579 -0.0124091 7.94553e-22)
(-0.18856 -0.0161206 2.34441e-21)
(-0.157053 -0.0188027 7.97079e-22)
(-0.120932 -0.0226651 1.13184e-21)
(-0.0729545 -0.0235091 9.95764e-22)
(-0.037843 -0.0282159 -3.81738e-23)
(0.0407728 -0.0255945 7.07458e-22)
(0.0568609 -0.0313587 1.28981e-22)
(0.186563 -0.0302298 -1.28629e-22)
(-0.0990754 0.0194043 1.38284e-21)
(-0.106642 0.0190002 -1.55515e-20)
(-0.114029 0.0184269 2.87479e-20)
(-0.121483 0.0178192 -7.575e-21)
(-0.129002 0.0171887 -1.57997e-20)
(-0.136544 0.016552 3.52169e-20)
(-0.14409 0.0159082 -1.58396e-20)
(-0.151619 0.0152555 -3.08204e-20)
(-0.159109 0.0145965 8.06616e-21)
(-0.166541 0.0139367 1.33501e-21)
(-0.173897 0.0132846 -7.05995e-21)
(-0.181161 0.0126495 2.23763e-20)
(-0.188321 0.0120404 6.06066e-21)
(-0.195363 0.0114652 -8.46833e-21)
(-0.202276 0.0109299 -2.98091e-22)
(-0.209044 0.0104381 -1.19994e-20)
(-0.215648 0.00999009 2.46298e-20)
(-0.222066 0.00958246 -1.16325e-20)
(-0.228263 0.00920677 -1.40156e-20)
(-0.234195 0.00884879 9.34128e-21)
(-0.239799 0.00848747 6.15179e-21)
(-0.244992 0.00809216 -1.35926e-21)
(-0.24966 0.00762318 8.56855e-21)
(-0.253657 0.00703204 -7.76102e-21)
(-0.256781 0.0062547 -1.28201e-21)
(-0.258802 0.00522992 -3.43458e-21)
(-0.259397 0.00385744 1.44116e-20)
(-0.258249 0.00213091 -9.30946e-21)
(-0.254858 -2.08152e-05 -4.68409e-21)
(-0.249 -0.00273355 5.81908e-21)
(-0.239636 -0.00603233 -3.88083e-21)
(-0.227094 -0.00954167 2.11555e-21)
(-0.209433 -0.0137882 -1.11623e-21)
(-0.188341 -0.0176928 6.12242e-21)
(-0.160626 -0.0224682 -5.48329e-21)
(-0.12894 -0.0257938 9.08133e-22)
(-0.0924903 -0.0308498 -2.73226e-21)
(-0.0447839 -0.0317289 -1.43862e-21)
(-0.00950227 -0.0381929 -1.05182e-21)
(0.0678203 -0.034563 -8.53337e-22)
(0.0843957 -0.0423352 2.78125e-22)
(0.210902 -0.0415472 1.03518e-22)
(-0.0916856 0.0243384 9.68988e-21)
(-0.0987955 0.0238574 3.6724e-20)
(-0.105604 0.0231919 -1.43107e-20)
(-0.112499 0.0224734 -5.97415e-20)
(-0.119489 0.0217086 7.15026e-20)
(-0.126505 0.0209239 -3.87308e-21)
(-0.133522 0.0201217 -2.24861e-20)
(-0.140511 0.0193018 2.05178e-20)
(-0.147446 0.018469 -2.44943e-20)
(-0.154305 0.0176308 2.11446e-20)
(-0.161066 0.0167979 -3.44029e-22)
(-0.167714 0.0159812 -1.79182e-20)
(-0.174232 0.0151913 -6.60088e-21)
(-0.180605 0.0144365 7.66973e-21)
(-0.186819 0.0137231 2.46382e-20)
(-0.192854 0.013054 -3.93105e-21)
(-0.198691 0.0124281 -3.13283e-20)
(-0.2043 0.01184 2.10315e-20)
(-0.209645 0.0112783 -2.17014e-20)
(-0.214678 0.010725 6.31093e-21)
(-0.219334 0.0101546 -6.73452e-21)
(-0.223529 0.00953006 7.60297e-21)
(-0.227148 0.00880417 1.01374e-20)
(-0.230047 0.00792127 8.54103e-21)
(-0.232026 0.00680546 -1.68685e-20)
(-0.232868 0.00539287 -1.44266e-21)
(-0.232244 0.00357487 7.21307e-21)
(-0.229871 0.00140853 6.10691e-21)
(-0.225243 -0.0015198 -1.3423e-20)
(-0.218204 -0.00485202 -3.86834e-21)
(-0.20764 -0.00893427 -2.37575e-21)
(-0.194088 -0.0132389 2.8577e-21)
(-0.175361 -0.0184198 -1.25161e-21)
(-0.153612 -0.0231273 -5.09906e-21)
(-0.125084 -0.0289257 -2.16228e-21)
(-0.0932235 -0.0328436 7.37208e-22)
(-0.0564171 -0.039065 -1.49341e-21)
(-0.0090984 -0.0398985 1.14864e-21)
(0.0263292 -0.0479725 -1.02257e-22)
(0.102084 -0.0436449 1.7588e-21)
(0.119198 -0.0530285 -8.34017e-22)
(0.241764 -0.0526057 7.28196e-23)
(-0.0823296 0.028787 1.09216e-20)
(-0.088915 0.0282396 -1.10678e-19)
(-0.0950366 0.027523 4.74049e-20)
(-0.101268 0.0267289 -2.35081e-21)
(-0.107623 0.0258527 4.49139e-20)
(-0.114008 0.0249342 -1.95181e-20)
(-0.120387 0.0239818 1.94461e-21)
(-0.126726 0.0229989 -4.07006e-20)
(-0.132992 0.021994 4.78091e-20)
(-0.139161 0.0209776 -1.72471e-21)
(-0.14521 0.0199629 -1.81845e-20)
(-0.151119 0.0189631 -1.00644e-20)
(-0.156871 0.0179898 1.23643e-20)
(-0.162449 0.0170523 7.9107e-21)
(-0.167833 0.0161567 2.47481e-20)
(-0.173003 0.0153053 -3.65251e-20)
(-0.177933 0.0144961 -5.44623e-21)
(-0.18259 0.0137216 4.0846e-21)
(-0.186933 0.0129678 -5.36652e-21)
(-0.190911 0.0122134 1.11668e-20)
(-0.194456 0.0114288 9.42845e-21)
(-0.197483 0.0105711 1.56581e-21)
(-0.199875 0.00958607 -2.67086e-20)
(-0.201493 0.00841202 4.38016e-21)
(-0.202139 0.00696093 1.86045e-20)
(-0.201607 0.00516802 -9.97126e-21)
(-0.199551 0.00291472 -7.43356e-21)
(-0.195795 0.000243074 1.53602e-20)
(-0.189767 -0.0033069 -1.42803e-20)
(-0.181363 -0.00728765 1.78317e-20)
(-0.169436 -0.0121247 7.72211e-21)
(-0.154764 -0.0171874 -5.70338e-21)
(-0.134846 -0.0232571 -8.59483e-23)
(-0.112405 -0.028722 -1.31134e-21)
(-0.0830033 -0.0354966 -6.89486e-22)
(-0.0510025 -0.0399464 5.5658e-21)
(-0.0138551 -0.0473093 3.50534e-21)
(0.0329422 -0.0480349 -1.82493e-21)
(0.0684207 -0.0575618 2.73043e-21)
(0.142371 -0.0527263 -1.80392e-21)
(0.160016 -0.0634023 -5.72622e-22)
(0.278034 -0.0633428 -1.19051e-22)
(-0.0708709 0.0326942 2.76754e-20)
(-0.0769069 0.0320764 -3.90065e-20)
(-0.082258 0.0313543 -3.71711e-20)
(-0.0877405 0.0305245 -7.08838e-21)
(-0.0933784 0.0295625 7.23937e-20)
(-0.0990436 0.0285262 -1.04322e-19)
(-0.104693 0.0274332 5.40323e-20)
(-0.110286 0.0262926 3.04308e-20)
(-0.115785 0.0251186 8.07923e-21)
(-0.121164 0.0239253 -3.65759e-20)
(-0.126398 0.0227292 3.22471e-20)
(-0.131467 0.0215456 -2.41337e-20)
(-0.136352 0.0203876 6.01099e-21)
(-0.141031 0.0192651 9.94559e-21)
(-0.145483 0.0181841 3.87105e-21)
(-0.149682 0.0171464 -5.51204e-20)
(-0.153597 0.0161489 2.68623e-20)
(-0.157193 0.0151824 1.51404e-20)
(-0.160422 0.0142305 -3.03942e-20)
(-0.163228 0.013269 1.47594e-20)
(-0.165542 0.0122652 1.92415e-20)
(-0.167275 0.0111707 5.45954e-21)
(-0.16831 0.00992485 -1.91877e-21)
(-0.168514 0.00846135 9.78653e-22)
(-0.167689 0.00667966 3.20466e-21)
(-0.165648 0.00451877 1.59035e-21)
(-0.162042 0.00187337 5.37199e-21)
(-0.15676 -0.00141779 -1.2594e-20)
(-0.149182 -0.0054695 3.74343e-22)
(-0.139329 -0.0100673 -8.86409e-21)
(-0.125933 -0.0156183 1.06642e-20)
(-0.110087 -0.0213964 -8.63693e-22)
(-0.0889122 -0.0283039 -5.43695e-21)
(-0.0657862 -0.0344758 -9.05844e-21)
(-0.0355118 -0.042167 8.21216e-21)
(-0.0034346 -0.0470844 -4.20617e-21)
(0.0339902 -0.055534 5.65709e-21)
(0.0801366 -0.0561649 -9.94014e-22)
(0.115526 -0.0669353 -8.87051e-22)
(0.187428 -0.0617297 -1.11011e-22)
(0.205554 -0.0734241 1.35187e-21)
(0.31854 -0.0737025 1.49007e-22)
(-0.0570848 0.036039 -1.01892e-19)
(-0.0626116 0.0353186 8.2337e-21)
(-0.0671344 0.0346393 1.31536e-20)
(-0.0718138 0.0338152 4.32989e-20)
(-0.0766764 0.0327944 -6.57212e-20)
(-0.081555 0.0316569 -1.6791e-20)
(-0.0864006 0.0304334 3.32802e-20)
(-0.0911684 0.0291411 -9.95785e-21)
(-0.0958202 0.0278021 -2.11183e-20)
(-0.100328 0.0264347 1.97142e-20)
(-0.104666 0.0250593 5.09891e-21)
(-0.108815 0.0236934 -2.07168e-20)
(-0.112753 0.0223513 2.34498e-20)
(-0.116456 0.0210432 -1.60299e-20)
(-0.1199 0.0197751 6.16176e-22)
(-0.123054 0.0185484 5.07641e-20)
(-0.125882 0.0173588 -3.69222e-20)
(-0.128343 0.0161956 1.26311e-20)
(-0.130385 0.0150404 -1.15666e-20)
(-0.131945 0.0138666 1.30242e-20)
(-0.13295 0.0126391 -5.48452e-20)
(-0.133311 0.0113047 2.56479e-20)
(-0.13291 0.00979708 2.02381e-20)
(-0.131619 0.00804705 -5.61507e-21)
(-0.129239 0.00594085 9.13735e-22)
(-0.125596 0.00342857 -1.23414e-21)
(-0.120379 0.000385151 -1.68587e-20)
(-0.113511 -0.00342545 -3.27401e-21)
(-0.104298 -0.00801425 2.26895e-21)
(-0.0929519 -0.0131962 2.94796e-21)
(-0.0780349 -0.0194142 3.37654e-21)
(-0.0610146 -0.0258637 6.11727e-21)
(-0.0385745 -0.0335451 -1.56291e-21)
(-0.014808 -0.0403827 9.61506e-21)
(0.0162847 -0.0489026 -1.3601e-21)
(0.0483507 -0.0542295 -7.20387e-21)
(0.0859383 -0.0636863 1.85079e-21)
(0.131288 -0.064244 -2.47971e-21)
(0.166448 -0.0760849 -3.87094e-21)
(0.236039 -0.0706036 -4.21306e-22)
(0.254567 -0.0830639 3.43628e-22)
(0.362144 -0.0836356 3.06073e-23)
(-0.0406288 0.0387717 1.25833e-20)
(-0.0457756 0.0379466 -5.74435e-20)
(-0.0494422 0.037361 3.14257e-20)
(-0.0532994 0.0365769 2.80624e-21)
(-0.0573592 0.0355225 -1.30547e-20)
(-0.0614095 0.0342985 9.1635e-20)
(-0.0653986 0.0329538 1.22171e-20)
(-0.0692829 0.0315155 -4.7551e-20)
(-0.0730257 0.030017 -3.7787e-20)
(-0.0766008 0.0284803 4.92498e-20)
(-0.0799848 0.0269301 -4.10666e-20)
(-0.0831573 0.0253857 3.47619e-20)
(-0.0860959 0.0238623 -4.03508e-20)
(-0.0887753 0.0223706 -3.40474e-21)
(-0.091166 0.0209162 8.10884e-22)
(-0.0932332 0.0194997 8.15059e-20)
(-0.0949358 0.0181159 -1.28144e-20)
(-0.0962257 0.0167529 9.78527e-21)
(-0.0970459 0.0153906 -4.70182e-22)
(-0.0973273 0.0140002 -8.58583e-21)
(-0.0969935 0.0125456 -1.80084e-21)
(-0.0959538 0.0109692 -1.69313e-20)
(-0.0940848 0.00919992 3.81643e-20)
(-0.0912704 0.00716703 9.62078e-21)
(-0.0873061 0.0047434 -1.88353e-20)
(-0.0820433 0.00192682 1.25453e-20)
(-0.0751915 -0.00161115 -1.90248e-20)
(-0.0667176 -0.00584087 1.70346e-20)
(-0.0558545 -0.0109334 -6.2333e-21)
(-0.0430262 -0.0166629 5.60197e-21)
(-0.0265915 -0.0234962 -4.26674e-21)
(-0.0084408 -0.0305869 -3.50243e-21)
(0.0152194 -0.0389391 1.31781e-20)
(0.0395523 -0.0463972 -1.96013e-21)
(0.0713664 -0.0556853 3.09907e-21)
(0.103303 -0.061348 2.76008e-21)
(0.140913 -0.0717418 -4.83635e-21)
(0.185292 -0.0722074 3.15247e-21)
(0.220092 -0.0849788 3.18294e-21)
(0.287094 -0.0792966 1.42166e-21)