/*--------------------------------*- C++ -*----------------------------------*\
  =========                 |
  \\      /  F ield         | OpenFOAM: The Open Source CFD Toolbox
   \\    /   O peration     | Website:  https://openfoam.org
    \\  /    A nd           | Version:  7
     \\/     M anipulation  |
\*---------------------------------------------------------------------------*/
FoamFile
{
    version     2.0;
    format      ascii;
    class       volScalarField;
    location    "5";
    object      p;
}
// * * * * * * * * * * * * * * * * * * * * * * * * * * * * * * * * * * * * * //

dimensions      [0 2 -2 0 0 0 0];

internalField   nonuniform List<scalar> 
12772
(
-0.328107
-0.334916
-0.338548
-0.342989
-0.349015
-0.356973
-0.367075
-0.379355
-0.393679
-0.410054
-0.329231
-0.335805
-0.339369
-0.343775
-0.349782
-0.357738
-0.367854
-0.380174
-0.394528
-0.410919
-0.331401
-0.337518
-0.340947
-0.345277
-0.35124
-0.359182
-0.369311
-0.381691
-0.396091
-0.412468
-0.334473
-0.339936
-0.343162
-0.347368
-0.35325
-0.361146
-0.371262
-0.383689
-0.398128
-0.414377
-0.338252
-0.342897
-0.345854
-0.349878
-0.355623
-0.36342
-0.373464
-0.385875
-0.400326
-0.416228
-0.342509
-0.346217
-0.348838
-0.352613
-0.358147
-0.365764
-0.375641
-0.387925
-0.402353
-0.417571
-0.347004
-0.349707
-0.35193
-0.355379
-0.360608
-0.367939
-0.377526
-0.389518
-0.403897
-0.417969
-0.35151
-0.353192
-0.354963
-0.358001
-0.362816
-0.369733
-0.378884
-0.390365
-0.404708
-0.417116
-0.35583
-0.356527
-0.357803
-0.360343
-0.364623
-0.370982
-0.379543
-0.390249
-0.404488
-0.415285
-0.359802
-0.359606
-0.360359
-0.362317
-0.36594
-0.37159
-0.379413
-0.389342
-0.402758
-0.412395
-0.363328
-0.362368
-0.36258
-0.363886
-0.366739
-0.371535
-0.378468
-0.387407
-0.400064
-0.408182
-0.366358
-0.36479
-0.364465
-0.365064
-0.36705
-0.370873
-0.376791
-0.384586
-0.396549
-0.402864
-0.368896
-0.366892
-0.366047
-0.365906
-0.366957
-0.36972
-0.374545
-0.381117
-0.392417
-0.396775
-0.370996
-0.368722
-0.36739
-0.366499
-0.366585
-0.368244
-0.371941
-0.377285
-0.387975
-0.390272
-0.372756
-0.370359
-0.368577
-0.366952
-0.366078
-0.366641
-0.369219
-0.373411
-0.383533
-0.383809
-0.374308
-0.371901
-0.369708
-0.367386
-0.365596
-0.365117
-0.366622
-0.369826
-0.379284
-0.377841
-0.375813
-0.373462
-0.370895
-0.367928
-0.365297
-0.36387
-0.36437
-0.366837
-0.375235
-0.372726
-0.377445
-0.375166
-0.372256
-0.368705
-0.365329
-0.363072
-0.36264
-0.364679
-0.37127
-0.368636
-0.379385
-0.377138
-0.373905
-0.369837
-0.36582
-0.362859
-0.361595
-0.363426
-0.367381
-0.366281
-0.3818
-0.379498
-0.375951
-0.371425
-0.366866
-0.363312
-0.361302
-0.362884
-0.363885
-0.367794
-0.384828
-0.38235
-0.378483
-0.373547
-0.368523
-0.364451
-0.361769
-0.362682
-0.361313
-0.372476
-0.388565
-0.385785
-0.381567
-0.376246
-0.370807
-0.366247
-0.362912
-0.362633
-0.359945
-0.366808
-0.393089
-0.389856
-0.385243
-0.37954
-0.373703
-0.368634
-0.364574
-0.362801
-0.358645
-0.360393
-0.398448
-0.394593
-0.389534
-0.383427
-0.377173
-0.371529
-0.366598
-0.363148
-0.357172
-0.354644
-0.404654
-0.400015
-0.394449
-0.387898
-0.381173
-0.374848
-0.368861
-0.363537
-0.355505
-0.349118
-0.411703
-0.406135
-0.399999
-0.392947
-0.385663
-0.378513
-0.371251
-0.363842
-0.353541
-0.343867
-0.419583
-0.412959
-0.406196
-0.398572
-0.390605
-0.382447
-0.373653
-0.363942
-0.351263
-0.338716
-0.428276
-0.420493
-0.413052
-0.40477
-0.395965
-0.38657
-0.375942
-0.363739
-0.348648
-0.333592
-0.437762
-0.428741
-0.420577
-0.41153
-0.401696
-0.390777
-0.377992
-0.363152
-0.34569
-0.328411
-0.448007
-0.437694
-0.428763
-0.418821
-0.407724
-0.394935
-0.379683
-0.362125
-0.342378
-0.323109
-0.458963
-0.447326
-0.437581
-0.426584
-0.413935
-0.398891
-0.380908
-0.360607
-0.338697
-0.317625
-0.470556
-0.457585
-0.446963
-0.434721
-0.420173
-0.402483
-0.381568
-0.358558
-0.334619
-0.311899
-0.482681
-0.468385
-0.456807
-0.443087
-0.42624
-0.405546
-0.381574
-0.355935
-0.33011
-0.305873
-0.495196
-0.4796
-0.466963
-0.451488
-0.431914
-0.407922
-0.380844
-0.352689
-0.325124
-0.299487
-0.507918
-0.491062
-0.47724
-0.459681
-0.436961
-0.409459
-0.379295
-0.348769
-0.31961
-0.292682
-0.520623
-0.502561
-0.487399
-0.467386
-0.441147
-0.410013
-0.376848
-0.344116
-0.313509
-0.285399
-0.533049
-0.513843
-0.497159
-0.474301
-0.444245
-0.40945
-0.37342
-0.338668
-0.306758
-0.27758
-0.544897
-0.524619
-0.506202
-0.480116
-0.446039
-0.407643
-0.36893
-0.332357
-0.299296
-0.269171
-0.555839
-0.534567
-0.51418
-0.484527
-0.44633
-0.404472
-0.363297
-0.325116
-0.291058
-0.260126
-0.565525
-0.543344
-0.520736
-0.487244
-0.444939
-0.399828
-0.356443
-0.316876
-0.281986
-0.250402
-0.573593
-0.550589
-0.525511
-0.488001
-0.441702
-0.39361
-0.348293
-0.307574
-0.272027
-0.239964
-0.579678
-0.555936
-0.528164
-0.486561
-0.436479
-0.385726
-0.338776
-0.29715
-0.261137
-0.228788
-0.583423
-0.559027
-0.528379
-0.482719
-0.429151
-0.376098
-0.327828
-0.285546
-0.24928
-0.216851
-0.584492
-0.55952
-0.52588
-0.476304
-0.419622
-0.364661
-0.315393
-0.27271
-0.236403
-0.204091
-0.582573
-0.557103
-0.520434
-0.467186
-0.40782
-0.351368
-0.301434
-0.258603
-0.222437
-0.190334
-0.577394
-0.551504
-0.511858
-0.455271
-0.3937
-0.33619
-0.28593
-0.243214
-0.207332
-0.17532
-0.568726
-0.542499
-0.500015
-0.440503
-0.377238
-0.319112
-0.268872
-0.226556
-0.191156
-0.159025
-0.55639
-0.529924
-0.484815
-0.422863
-0.358438
-0.300135
-0.250258
-0.208636
-0.173995
-0.142228
-0.540262
-0.513669
-0.466219
-0.402364
-0.337327
-0.27928
-0.230118
-0.189498
-0.155633
-0.124989
-0.520273
-0.493681
-0.444235
-0.379056
-0.313958
-0.2566
-0.208544
-0.169167
-0.136238
-0.107056
-0.496412
-0.469969
-0.418927
-0.353031
-0.288401
-0.232186
-0.185574
-0.147651
-0.115928
-0.088377
-0.468724
-0.442601
-0.390429
-0.324417
-0.260727
-0.206109
-0.161253
-0.125033
-0.0947701
-0.0690058
-0.437306
-0.41171
-0.358932
-0.293314
-0.23104
-0.178449
-0.135674
-0.101401
-0.0728304
-0.0490457
-0.402317
-0.377495
-0.324562
-0.259688
-0.199603
-0.149349
-0.108943
-0.076847
-0.050188
-0.0286113
-0.363976
-0.340221
-0.287181
-0.224029
-0.166493
-0.118947
-0.0811821
-0.0514717
-0.0269237
-0.00778578
-0.322508
-0.300132
-0.247011
-0.186559
-0.131919
-0.0873989
-0.0525271
-0.0253811
-0.0031277
0.0133292
-0.278114
-0.257081
-0.205039
-0.147428
-0.0960767
-0.0548693
-0.0231071
0.00132661
0.0210401
0.0343296
-0.231117
-0.211637
-0.161486
-0.10691
-0.0591679
-0.0215225
0.00697365
0.0285802
0.0452857
0.0543044
-0.182096
-0.164107
-0.116465
-0.0652771
-0.021415
0.0124744
0.0376228
0.0563056
0.0693249
0.072763
-0.131275
-0.114976
-0.070235
-0.0228044
0.0169451
0.0469368
0.0686862
0.0842908
0.0931925
0.0918981
-0.0790492
-0.0646764
-0.0231304
0.0202238
0.0556678
0.0816538
0.0999032
0.112122
0.116915
0.116835
-0.0258577
-0.0136101
0.0244881
0.0635128
0.0945039
0.116397
0.130998
0.139634
0.141193
0.141853
0.0278583
0.0378191
0.0722537
0.106761
0.133198
0.150936
0.1618
0.166907
0.165718
0.165445
0.0816542
0.0892017
0.1198
0.149662
0.17149
0.185041
0.192133
0.193809
0.190035
0.188014
0.135085
0.140127
0.166765
0.191912
0.20912
0.218491
0.221829
0.220164
0.213801
0.209576
0.187707
0.190186
0.212791
0.233211
0.245834
0.25107
0.250711
0.245791
0.236834
0.230201
0.239088
0.238979
0.25753
0.273263
0.281381
0.282568
0.278599
0.270517
0.258987
0.249864
0.288803
0.286116
0.300646
0.311785
0.315521
0.312779
0.305317
0.294182
0.280139
0.268516
0.336443
0.33122
0.341813
0.348502
0.34802
0.341506
0.330695
0.31664
0.300173
0.286087
0.381617
0.373935
0.380726
0.383154
0.378658
0.368561
0.354572
0.337753
0.318978
0.302502
0.423958
0.413923
0.417092
0.415496
0.407225
0.393764
0.376797
0.35739
0.336448
0.317686
0.463118
0.450868
0.450642
0.445298
0.433527
0.41695
0.397226
0.375431
0.352482
0.331565
0.49878
0.484482
0.481127
0.47235
0.457384
0.437967
0.41573
0.391764
0.366984
0.344073
0.530655
0.514501
0.508322
0.496462
0.478635
0.456675
0.432192
0.406288
0.37987
0.355149
0.558483
0.540691
0.532027
0.517463
0.497134
0.472952
0.446506
0.418912
0.391061
0.364738
0.582041
0.562847
0.552065
0.535206
0.512756
0.486691
0.458583
0.429558
0.400492
0.372797
0.601136
0.580797
0.56829
0.549566
0.525395
0.497803
0.468345
0.43816
0.408107
0.379286
0.615612
0.5944
0.58058
0.56044
0.534964
0.506212
0.475731
0.444667
0.41386
0.384172
0.625353
0.603549
0.588844
0.56775
0.541396
0.511864
0.480694
0.449037
0.417723
0.38745
0.630276
0.608171
0.593018
0.571442
0.544644
0.514719
0.4832
0.451245
0.419682
0.389133
0.63034
0.608229
0.59307
0.571488
0.544684
0.514752
0.483228
0.451269
0.419705
0.389166
0.625542
0.603719
0.588997
0.567885
0.541512
0.511961
0.480772
0.449098
0.417771
0.387489
0.615918
0.594674
0.580827
0.560655
0.535146
0.506361
0.475846
0.44475
0.413915
0.384201
0.601544
0.581164
0.568619
0.54985
0.525632
0.497991
0.468485
0.438256
0.408162
0.379303
0.582536
0.563292
0.552462
0.535545
0.513034
0.486906
0.458737
0.429656
0.400542
0.372804
0.559047
0.541197
0.532476
0.517843
0.497439
0.473183
0.446666
0.419008
0.391104
0.364736
0.531267
0.515052
0.508809
0.496868
0.478956
0.456913
0.432352
0.406381
0.379907
0.35514
0.499421
0.48506
0.481636
0.472771
0.457712
0.438206
0.415888
0.391853
0.367019
0.344061
0.463769
0.451458
0.45116
0.445723
0.433855
0.417186
0.39738
0.375518
0.352515
0.331552
0.424603
0.41451
0.417607
0.415917
0.407547
0.393994
0.376947
0.357476
0.336483
0.317673
0.382243
0.374507
0.381229
0.383564
0.378971
0.368785
0.35472
0.337839
0.319015
0.302492
0.337036
0.331767
0.342297
0.348896
0.348322
0.341723
0.33084
0.316728
0.300213
0.286079
0.289356
0.286629
0.301103
0.31216
0.315809
0.312989
0.30546
0.294273
0.280184
0.26851
0.239594
0.239454
0.257957
0.273616
0.281655
0.28277
0.278741
0.270611
0.259038
0.24986
0.188163
0.190619
0.213184
0.23354
0.246093
0.251265
0.250852
0.24589
0.236891
0.230197
0.135487
0.140514
0.167123
0.192217
0.209365
0.21868
0.22197
0.220267
0.213866
0.209573
0.0820036
0.0895432
0.120123
0.149942
0.17172
0.185223
0.192274
0.193918
0.190114
0.188014
0.0281553
0.0381151
0.0725408
0.107016
0.133414
0.151113
0.161941
0.167021
0.165817
0.165463
-0.025611
-0.0133582
0.0247403
0.0637444
0.0947061
0.116569
0.131139
0.139753
0.14132
0.141925
-0.0788499
-0.0644667
-0.0229117
0.0204322
0.0558565
0.0818209
0.100046
0.112244
0.117067
0.117034
-0.131119
-0.114806
-0.0700481
-0.0226183
0.0171206
0.0470991
0.0688327
0.0844209
0.0933642
0.0922557
-0.181981
-0.163973
-0.116308
-0.0651124
-0.0212526
0.012631
0.0377719
0.0564444
0.0694935
0.0730801
-0.23104
-0.211537
-0.161358
-0.106766
-0.0590188
-0.0213735
0.00712072
0.0287198
0.0454352
0.05453
-0.278067
-0.257012
-0.204938
-0.147304
-0.0959413
-0.0547296
-0.0229667
0.0014605
0.0211722
0.0344981
-0.322489
-0.300089
-0.246934
-0.186453
-0.131798
-0.0872696
-0.0523956
-0.0252552
-0.00300712
0.0134705
-0.363981
-0.340202
-0.287126
-0.223941
-0.166384
-0.118828
-0.08106
-0.0513537
-0.0268117
-0.00766154
-0.402342
-0.377497
-0.324525
-0.259618
-0.199508
-0.149241
-0.10883
-0.0767368
-0.0500837
-0.0285009
-0.437349
-0.41173
-0.358913
-0.293259
-0.230956
-0.178352
-0.13557
-0.101298
-0.0727334
-0.0489462
-0.468781
-0.442636
-0.390425
-0.324375
-0.260656
-0.206022
-0.161159
-0.124938
-0.0946797
-0.0689142
-0.496481
-0.470016
-0.418937
-0.353001
-0.288341
-0.232108
-0.185487
-0.147563
-0.115844
-0.0882914
-0.52035
-0.493738
-0.444257
-0.379038
-0.313908
-0.256531
-0.208465
-0.169086
-0.136159
-0.106975
-0.540345
-0.513733
-0.46625
-0.402355
-0.337287
-0.279219
-0.230046
-0.189423
-0.155558
-0.124913
-0.556477
-0.529993
-0.484853
-0.422863
-0.358407
-0.300081
-0.250193
-0.208566
-0.173924
-0.142156
-0.568815
-0.542571
-0.500058
-0.44051
-0.377214
-0.319065
-0.268813
-0.22649
-0.191088
-0.158956
-0.577482
-0.551577
-0.511905
-0.455284
-0.393682
-0.33615
-0.285877
-0.243153
-0.207268
-0.175254
-0.58266
-0.557176
-0.520484
-0.467204
-0.407808
-0.351334
-0.301385
-0.258546
-0.222376
-0.190271
-0.584575
-0.559591
-0.52593
-0.476326
-0.419614
-0.364631
-0.315349
-0.272657
-0.236345
-0.204031
-0.583503
-0.559095
-0.528429
-0.482742
-0.429147
-0.376072
-0.327788
-0.285496
-0.249225
-0.216793
-0.579752
-0.556
-0.528212
-0.486586
-0.436478
-0.385704
-0.338739
-0.297104
-0.261085
-0.228732
-0.573662
-0.550648
-0.525558
-0.488027
-0.441703
-0.393591
-0.348259
-0.307531
-0.271977
-0.239911
-0.565588
-0.543399
-0.520779
-0.487269
-0.444942
-0.399812
-0.356412
-0.316836
-0.281939
-0.250351
-0.555896
-0.534616
-0.51422
-0.48455
-0.446335
-0.404459
-0.363269
-0.325078
-0.291013
-0.260077
-0.544948
-0.524662
-0.506237
-0.480138
-0.446044
-0.407631
-0.368904
-0.332322
-0.299253
-0.269124
-0.533093
-0.51388
-0.49719
-0.474321
-0.44425
-0.40944
-0.373396
-0.338635
-0.306718
-0.277534
-0.520661
-0.502593
-0.487425
-0.467403
-0.441152
-0.410004
-0.376826
-0.344085
-0.31347
-0.285355
-0.50795
-0.49109
-0.477262
-0.459695
-0.436966
-0.40945
-0.379275
-0.348739
-0.319573
-0.29264
-0.495223
-0.479622
-0.466981
-0.4515
-0.431917
-0.407914
-0.380825
-0.352661
-0.325089
-0.299446
-0.482703
-0.468403
-0.456821
-0.443096
-0.426242
-0.405539
-0.381557
-0.355908
-0.330076
-0.305833
-0.470573
-0.457599
-0.446974
-0.434728
-0.420174
-0.402476
-0.381551
-0.358534
-0.334587
-0.311861
-0.458976
-0.447336
-0.437588
-0.426588
-0.413935
-0.398884
-0.380893
-0.360584
-0.338666
-0.317588
-0.448016
-0.437701
-0.428768
-0.418823
-0.407721
-0.394927
-0.379669
-0.362103
-0.342349
-0.323074
-0.437768
-0.428745
-0.420579
-0.41153
-0.401692
-0.390769
-0.377978
-0.363132
-0.345662
-0.328377
-0.42828
-0.420495
-0.413052
-0.404768
-0.39596
-0.386562
-0.375929
-0.363719
-0.348622
-0.333559
-0.419584
-0.412959
-0.406194
-0.398569
-0.3906
-0.382439
-0.37364
-0.363924
-0.351238
-0.338685
-0.411702
-0.406133
-0.399996
-0.392943
-0.385656
-0.378504
-0.371239
-0.363825
-0.353518
-0.343837
-0.404651
-0.400012
-0.394445
-0.387893
-0.381166
-0.374839
-0.368849
-0.36352
-0.355483
-0.34909
-0.398443
-0.394588
-0.389528
-0.38342
-0.377165
-0.371519
-0.366585
-0.363132
-0.357151
-0.354616
-0.393083
-0.389849
-0.385237
-0.379532
-0.373695
-0.368624
-0.364562
-0.362785
-0.358625
-0.360367
-0.388557
-0.385778
-0.381559
-0.376237
-0.370798
-0.366237
-0.3629
-0.362618
-0.359925
-0.366782
-0.384819
-0.382341
-0.378475
-0.373538
-0.368513
-0.36444
-0.361756
-0.362667
-0.361293
-0.372451
-0.38179
-0.379488
-0.375942
-0.371416
-0.366856
-0.3633
-0.361289
-0.362868
-0.363865
-0.367768
-0.379374
-0.377128
-0.373895
-0.369826
-0.365809
-0.362847
-0.361581
-0.363409
-0.367361
-0.366253
-0.377433
-0.375155
-0.372245
-0.368694
-0.365318
-0.363059
-0.362626
-0.364661
-0.37125
-0.368607
-0.3758
-0.37345
-0.370884
-0.367916
-0.365285
-0.363856
-0.364355
-0.366818
-0.375215
-0.372695
-0.374294
-0.371888
-0.369696
-0.367374
-0.365584
-0.365103
-0.366606
-0.369807
-0.379263
-0.377809
-0.372741
-0.370346
-0.368564
-0.366939
-0.366065
-0.366626
-0.369202
-0.373391
-0.38351
-0.383776
-0.370981
-0.368708
-0.367376
-0.366486
-0.366571
-0.368228
-0.371923
-0.377263
-0.38795
-0.390238
-0.368881
-0.366877
-0.366034
-0.365892
-0.366943
-0.369704
-0.374526
-0.381095
-0.392391
-0.396741
-0.366342
-0.364776
-0.364451
-0.36505
-0.367035
-0.370856
-0.376772
-0.384563
-0.396522
-0.402829
-0.363312
-0.362353
-0.362566
-0.363872
-0.366723
-0.371518
-0.378448
-0.387383
-0.400036
-0.408146
-0.359786
-0.359591
-0.360344
-0.362303
-0.365925
-0.371572
-0.379393
-0.389317
-0.40273
-0.412359
-0.355813
-0.356512
-0.357788
-0.360329
-0.364608
-0.370965
-0.379523
-0.390223
-0.404461
-0.415248
-0.351494
-0.353178
-0.354949
-0.357987
-0.362801
-0.369716
-0.378865
-0.39034
-0.404679
-0.417081
-0.346989
-0.349693
-0.351917
-0.355365
-0.360594
-0.367923
-0.377507
-0.389495
-0.40387
-0.417935
-0.342495
-0.346205
-0.348826
-0.352601
-0.358134
-0.365749
-0.375623
-0.387904
-0.402327
-0.417539
-0.338241
-0.342887
-0.345843
-0.349867
-0.355611
-0.363407
-0.373448
-0.385856
-0.400303
-0.4162
-0.334464
-0.339928
-0.343154
-0.347359
-0.35324
-0.361135
-0.37125
-0.383673
-0.398109
-0.414353
-0.331394
-0.337512
-0.340941
-0.34527
-0.351233
-0.359174
-0.369302
-0.38168
-0.396077
-0.41245
-0.329227
-0.335801
-0.339365
-0.343771
-0.349778
-0.357733
-0.367848
-0.380167
-0.394519
-0.410908
-0.328106
-0.334915
-0.338546
-0.342988
-0.349013
-0.356972
-0.367073
-0.379353
-0.393676
-0.410051
-0.425675
-0.438618
-0.450797
-0.46111
-0.468763
-0.472761
-0.472002
-0.465187
-0.4513
-0.429423
-0.398661
-0.358555
-0.309439
-0.252848
-0.191663
-0.129894
-0.0718255
-0.0210477
0.0202254
0.0513416
0.0727831
0.0858734
0.0922576
0.0935913
0.0913405
0.0867249
0.0806745
0.0738954
0.0668471
0.059881
0.053145
0.0468087
0.0408226
0.0353169
0.0301051
0.0253998
0.0208523
0.0168556
0.0127727
0.00933271
0.00537991
0.00228484
-0.427023
-0.440005
-0.45229
-0.462717
-0.470498
-0.474642
-0.474066
-0.467474
-0.453833
-0.432217
-0.401707
-0.361801
-0.312778
-0.256125
-0.194721
-0.132603
-0.0741364
-0.0230044
0.0186232
0.0500324
0.0717147
0.0850034
0.0915515
0.0930204
0.0908808
0.0863557
0.0803786
0.0736585
0.0666576
0.0597294
0.053024
0.0467128
0.0407472
0.0352584
0.0300604
0.025366
0.0208274
0.0168372
0.0127601
0.00932375
0.0053753
0.00228172
-0.429485
-0.442536
-0.455021
-0.46567
-0.473702
-0.478128
-0.477906
-0.471749
-0.45859
-0.437493
-0.407487
-0.367995
-0.319183
-0.262444
-0.200649
-0.137891
-0.0786945
-0.0268447
0.0154478
0.0474242
0.0695797
0.0832615
0.0901367
0.0918765
0.08996
0.0856168
0.079787
0.0731855
0.0662795
0.0594274
0.0527834
0.046522
0.0405973
0.035142
0.0299714
0.0252987
0.0207776
0.0168006
0.0127348
0.00930587
0.00536611
0.00227552
-0.432637
-0.445783
-0.458537
-0.469504
-0.477901
-0.482737
-0.483019
-0.477489
-0.465023
-0.444689
-0.415441
-0.376594
-0.328154
-0.271365
-0.209107
-0.145537
-0.0853577
-0.0324225
0.0107658
0.043546
0.0663882
0.08065
0.0880126
0.0901587
0.0885781
0.0845091
0.0789013
0.0724786
0.0657156
0.0589778
0.0524256
0.0462385
0.0403747
0.0349691
0.029839
0.0251985
0.0207035
0.016746
0.0126972
0.00927917
0.00535239
0.0022663
-0.435941
-0.449195
-0.462262
-0.473635
-0.482497
-0.487866
-0.488769
-0.484021
-0.472441
-0.453104
-0.424858
-0.386897
-0.339041
-0.282324
-0.219676
-0.155227
-0.0937546
-0.0396419
0.00466642
0.0384461
0.062164
0.0771802
0.0851847
0.0878702
0.0867378
0.0830356
0.0777252
0.0715416
0.0649699
0.0583846
0.0519544
0.0458656
0.040082
0.0347415
0.0296647
0.0250664
0.0206057
0.0166738
0.0126473
0.00924381
0.00533423
0.00225418
-0.438827
-0.452193
-0.465598
-0.47745
-0.486864
-0.492871
-0.494489
-0.490594
-0.480127
-0.461997
-0.434979
-0.398149
-0.351151
-0.294736
-0.231847
-0.166412
-0.103653
-0.048311
-0.00273767
0.0321943
0.0569497
0.072878
0.0816694
0.0850226
0.0844478
0.0812038
0.0762652
0.0703808
0.0640481
0.057653
0.0513743
0.0454073
0.0397222
0.0344617
0.0294501
0.0249034
0.0204849
0.0165845
0.0125856
0.00919998
0.00531172
0.00223929
-0.44083
-0.454244
-0.468006
-0.480397
-0.490437
-0.497175
-0.499591
-0.496535
-0.487448
-0.470699
-0.445107
-0.409654
-0.363827
-0.307958
-0.244848
-0.178564
-0.114887
-0.058211
-0.0113062
0.024887
0.05081
0.0677869
0.077497
0.0816375
0.0817242
0.0790261
0.0745315
0.0690046
0.0629574
0.0567892
0.0506909
0.0448679
0.0392991
0.0341324
0.0291972
0.024711
0.020342
0.0164786
0.0125124
0.00914791
0.00528499
0.00222177
-0.441658
-0.454945
-0.469077
-0.482046
-0.49277
-0.500323
-0.503667
-0.501638
-0.493937
-0.478665
-0.454665
-0.420822
-0.376359
-0.320984
-0.258196
-0.191622
-0.127004
-0.0690994
-0.0208687
0.016645
0.0438303
0.0619682
0.0727114
0.0777468
0.0785906
0.0765205
0.072538
0.067424
0.0617069
0.0558007
0.0499102
0.0442524
0.0388164
0.0337565
0.0289082
0.0244907
0.020178
0.0163569
0.0124281
0.00908785
0.00525419
0.00220179
-0.440249
-0.454234
-0.468591
-0.482117
-0.493569
-0.502
-0.50642
-0.506007
-0.499218
-0.485416
-0.463071
-0.430902
-0.387954
-0.334007
-0.271639
-0.204969
-0.139677
-0.080722
-0.0312365
0.00760673
0.0361132
0.0554976
0.0673687
0.0733919
0.0750775
0.07371
0.070302
0.0656523
0.0603067
0.0546955
0.0490387
0.0435661
0.0382783
0.033337
0.0285852
0.024244
0.0199941
0.01622
0.0123332
0.00902009
0.00521946
0.00217953
-0.437114
-0.451904
-0.466466
-0.480519
-0.492687
-0.501996
-0.507499
-0.50829
-0.502948
-0.490715
-0.470133
-0.439809
-0.398579
-0.346152
-0.284635
-0.218233
-0.152597
-0.0928255
-0.0422132
-0.00207799
0.0277725
0.048461
0.0615334
0.0686206
0.0712206
0.070621
0.0678435
0.0637045
0.0587682
0.0534825
0.0480831
0.0428142
0.0376889
0.0328772
0.0282306
0.0239725
0.0197913
0.0160687
0.0122281
0.00894493
0.00518097
0.00215514
-0.432592
-0.448009
-0.46279
-0.477303
-0.490161
-0.50034
-0.506905
-0.508909
-0.505034
-0.4944
-0.475602
-0.447184
-0.407833
-0.357127
-0.296841
-0.23109
-0.165475
-0.105169
-0.053604
-0.0122553
0.0189277
0.04095
0.0552747
0.0634851
0.0670587
0.0672823
0.0651839
0.0615967
0.0571036
0.0521706
0.0470505
0.042002
0.0370521
0.0323801
0.0278466
0.0236779
0.0195707
0.0159037
0.0121133
0.00886267
0.00513887
0.00212879
-0.426902
-0.442857
-0.457775
-0.47264
-0.486113
-0.497103
-0.504688
-0.507868
-0.505466
-0.496419
-0.479386
-0.452884
-0.415508
-0.366706
-0.307977
-0.243268
-0.178059
-0.117529
-0.0652215
-0.0227734
0.00969876
0.0330574
0.0486633
0.0580386
0.0626318
0.0637234
0.0623455
0.0593455
0.0553251
0.050769
0.0459475
0.0411347
0.0363721
0.0318486
0.0274356
0.0233617
0.0193335
0.0157257
0.0119893
0.00877363
0.00509333
0.00210064
-0.420507
-0.436803
-0.451692
-0.466782
-0.480757
-0.492461
-0.50099
-0.505281
-0.504298
-0.496802
-0.481484
-0.456856
-0.421486
-0.374724
-0.317842
-0.254551
-0.190137
-0.129712
-0.0768965
-0.0334922
0.000197697
0.0248705
0.0417663
0.0523322
0.0579785
0.0599727
0.0593495
0.0569668
0.0534448
0.0492868
0.0447811
0.0402175
0.0356527
0.0312858
0.0269996
0.0230256
0.0190808
0.0155356
0.0118565
0.00867812
0.00504453
0.00207082
-0.413907
-0.430211
-0.444844
-0.460014
-0.474348
-0.486634
-0.496001
-0.501326
-0.501627
-0.495598
-0.481921
-0.459108
-0.425721
-0.381089
-0.326306
-0.264791
-0.201551
-0.141563
-0.0884888
-0.0442917
-0.00947738
0.0164674
0.0346446
0.0464128
0.0531344
0.0560572
0.056216
0.0544758
0.051474
0.0477324
0.0435575
0.039255
0.0348974
0.0306944
0.0265407
0.0226711
0.0188136
0.015334
0.0117155
0.00857646
0.00499264
0.00203944
-0.407501
-0.423406
-0.437525
-0.452611
-0.467127
-0.479837
-0.489907
-0.496125
-0.497559
-0.49288
-0.480739
-0.459662
-0.42824
-0.38579
-0.333305
-0.273888
-0.212179
-0.152946
-0.0998627
-0.0550482
-0.0192205
0.00793472
0.0273668
0.0403335
0.0481394
0.0520067
0.0529665
0.051888
0.0494238
0.0461139
0.0422827
0.0382517
0.0341096
0.0300768
0.0260608
0.0222996
0.0185329
0.0151216
0.0115665
0.00846893
0.0049378
0.0020066
-0.401541
-0.416616
-0.429979
-0.444801
-0.459294
-0.472245
-0.482864
-0.489807
-0.492198
-0.488719
-0.477988
-0.458552
-0.429064
-0.388856
-0.3388
-0.281728
-0.221851
-0.163664
-0.110817
-0.0655777
-0.0288768
-0.00060428
0.0200269
0.0341637
0.0430443
0.0478579
0.0496267
0.0492214
0.0473069
0.0444399
0.0409625
0.0372118
0.0332923
0.0294351
0.0255615
0.021912
0.0182395
0.0148989
0.01141
0.00835571
0.00488011
0.00197235
-0.396121
-0.409925
-0.422365
-0.436756
-0.450997
-0.463983
-0.475041
-0.48251
-0.48567
-0.483221
-0.473758
-0.455861
-0.42826
-0.390323
-0.342804
-0.288243
-0.230451
-0.173586
-0.121234
-0.0757874
-0.0383771
-0.00910014
0.0126599
0.027929
0.0378684
0.0436265
0.0462104
0.046489
0.0451344
0.0427195
0.039604
0.0361403
0.0324492
0.0287724
0.0250447
0.0215101
0.0179344
0.0146668
0.0112465
0.0082372
0.00481973
0.00193674
-0.391138
-0.403223
-0.414712
-0.428572
-0.44235
-0.455158
-0.466729
-0.474191
-0.478006
-0.47646
-0.468178
-0.451792
-0.426124
-0.39059
-0.345811
-0.294007
-0.238584
-0.183327
-0.1317
-0.0861933
-0.0481451
-0.0178791
0.00502857
0.0214654
0.0325042
0.0392451
0.0426771
0.0436703
0.0428991
0.0409529
0.038211
0.0350428
0.031586
0.0280938
0.0245152
0.0210977
0.0176207
0.0144277
0.0110776
0.0081149
0.00475744
0.0019001
-0.387118
-0.396501
-0.406898
-0.420021
-0.433076
-0.445445
-0.455857
-0.464362
-0.468716
-0.468049
-0.461033
-0.44635
-0.422914
-0.390154
-0.34851
-0.299794
-0.246984
-0.193535
-0.142749
-0.0972147
-0.0584977
-0.0271709
-0.00302764
0.0146638
0.0268784
0.0346652
0.0389921
0.0407341
0.0405773
0.0391242
0.0367739
0.0339141
0.0307007
0.0273992
0.0239738
0.0206761
0.0172999
0.014183
0.0109047
0.00798965
0.0046942
0.00186264
-0.384562
-0.38958
-0.399196
-0.41116
-0.422997
-0.434568
-0.444912
-0.453866
-0.458259
-0.458015
-0.451882
-0.438523
-0.4169
-0.386446
-0.347471
-0.301487
-0.251119
-0.199568
-0.150016
-0.105067
-0.0663683
-0.0346255
-0.00979259
0.0087228
0.0217935
0.0303992
0.0354673
0.0378521
0.0382463
0.0372543
0.0352836
0.0327295
0.0297639
0.0266583
0.0233941
0.0202213
0.0169534
0.0139159
0.0107164
0.00785086
0.00462563
0.00182164
-0.367596
-0.377278
-0.391723
-0.404487
-0.415917
-0.427146
-0.436563
-0.444069
-0.447956
-0.447196
-0.440569
-0.426899
-0.405298
-0.375389
-0.337628
-0.293531
-0.245557
-0.196635
-0.14962
-0.106826
-0.0697469
-0.0390436
-0.0147173
0.00371507
0.0170037
0.0260126
0.0315822
0.0344985
0.0354074
0.0348813
0.0333241
0.0311202
0.0284578
0.0255997
0.0225534
0.0195492
0.0164379
0.0135099
0.0104304
0.00763421
0.0045192
0.00175867
-0.363461
-0.371664
-0.383061
-0.393149
-0.402022
-0.410114
-0.417926
-0.423436
-0.425514
-0.42314
-0.415361
-0.401282
-0.380253
-0.352095
-0.31732
-0.277252
-0.233933
-0.189775
-0.147133
-0.107958
-0.0735752
-0.0446446
-0.0212675
-0.00313062
0.0103305
0.0198108
0.0260162
0.0296301
0.0312349
0.0313601
0.0303928
0.0287023
0.026485
0.0239987
0.0212728
0.0185283
0.0156478
0.012898
0.00999186
0.00731638
0.00434988
0.00167263
-0.353163
-0.361538
-0.369536
-0.376804
-0.383677
-0.390212
-0.395943
-0.399556
-0.399993
-0.396399
-0.388021
-0.374172
-0.354367
-0.328528
-0.297124
-0.261245
-0.222529
-0.182932
-0.14441
-0.108635
-0.0768089
-0.0496
-0.0272063
-0.00945939
0.00405029
0.0138738
0.0205996
0.0248188
0.0270524
0.0277848
0.0273806
0.0261913
0.0244156
0.0223053
0.0199066
0.0174331
0.0147932
0.0122352
0.00951176
0.00697194
0.00416051
0.00158556
-0.338431
-0.347341
-0.352905
-0.357695
-0.362784
-0.367816
-0.371897
-0.373939
-0.373099
-0.36871
-0.360168
-0.346929
-0.32863
-0.305236
-0.277152
-0.24526
-0.210877
-0.175583
-0.140992
-0.108522
-0.0792428
-0.0538132
-0.0325039
-0.0152673
-0.00183097
0.00822418
0.0153753
0.0201243
0.0229292
0.024227
0.0243574
0.0236515
0.0223076
0.0205697
0.0184981
0.0162985
0.0139032
0.0115426
0.0090072
0.00661067
0.00395953
0.00149829
-0.320591
-0.330095
-0.334325
-0.337249
-0.340718
-0.344367
-0.347116
-0.347944
-0.34618
-0.341325
-0.332906
-0.320496
-0.303815
-0.28285
-0.257934
-0.229772
-0.199408
-0.168105
-0.137181
-0.107833
-0.0810111
-0.057354
-0.0371849
-0.0205526
-0.00729917
0.00287952
0.0103598
0.0155591
0.0188732
0.0206911
0.0213246
0.0210828
0.0201597
0.0187899
0.0170451
0.0151222
0.0129755
0.0108184
0.00847671
0.00623151
0.00374624
0.00140913
-0.301168
-0.311004
-0.314564
-0.316252
-0.318432
-0.32093
-0.322646
-0.322599
-0.320231
-0.315173
-0.307073
-0.2956
-0.280537
-0.261875
-0.239878
-0.2151
-0.188362
-0.160667
-0.13309
-0.10664
-0.0821547
-0.0602396
-0.0412473
-0.0252983
-0.0123274
-0.00212825
0.00558539
0.0111529
0.0149098
0.0171975
0.0182981
0.0184964
0.0179795
0.0169707
0.01555
0.0139053
0.0120102
0.0100625
0.00791984
0.00583411
0.00352028
0.00131748
-0.281423
-0.291137
-0.294347
-0.295315
-0.296587
-0.298197
-0.299133
-0.298491
-0.295779
-0.290721
-0.283066
-0.272564
-0.259043
-0.242493
-0.223116
-0.201347
-0.177826
-0.153354
-0.128803
-0.105018
-0.082734
-0.0625099
-0.04471
-0.0295051
-0.0169022
-0.00677681
0.00107898
0.00693366
0.0110658
0.0137702
0.0152982
0.0159091
0.0157802
0.0151221
0.0140204
0.0126534
0.0110114
0.00927762
0.00733834
0.00541952
0.00328238
0.00122331
-0.261944
-0.27125
-0.274256
-0.274848
-0.275533
-0.276499
-0.276883
-0.275866
-0.27301
-0.268102
-0.260966
-0.251421
-0.239331
-0.224682
-0.20763
-0.18851
-0.167827
-0.146217
-0.124385
-0.103037
-0.0828076
-0.0642081
-0.0475987
-0.0331817
-0.0210188
-0.0110515
-0.00313868
0.00292484
0.00736487
0.0104313
0.0123445
0.0133372
0.0135752
0.0132547
0.0124643
0.0113726
0.00998354
0.00846684
0.0067345
0.00498912
0.00303351
0.00112668
-0.24308
-0.251838
-0.254687
-0.255105
-0.255442
-0.255979
-0.255996
-0.254771
-0.251914
-0.247259
-0.240684
-0.23206
-0.221281
-0.208334
-0.193334
-0.176544
-0.158357
-0.13928
-0.119882
-0.100751
-0.0824299
-0.0653791
-0.049944
-0.036344
-0.0246794
-0.0149438
-0.00705195
-0.000853951
0.0038279
0.00720112
0.00945544
0.0107969
0.0113779
0.0113793
0.0108904
0.0100692
0.00893144
0.00763373
0.00611082
0.00454444
0.00277472
0.00102772
-0.225039
-0.233176
-0.235883
-0.236236
-0.23639
-0.236662
-0.236458
-0.235149
-0.232395
-0.228061
-0.222066
-0.214318
-0.204737
-0.193309
-0.180122
-0.165378
-0.149387
-0.13255
-0.11533
-0.0982087
-0.0816525
-0.0660684
-0.0517803
-0.0390125
-0.0278916
-0.0184505
-0.0106497
-0.00438659
0.000473416
0.00409859
0.00664898
0.00830423
0.00920195
0.00950719
0.00930774
0.0087505
0.00786057
0.00678224
0.00547018
0.00408731
0.00250716
0.000926662
-0.207906
-0.215408
-0.217977
-0.218325
-0.218399
-0.218527
-0.218213
-0.216913
-0.214332
-0.210363
-0.20495
-0.198028
-0.189538
-0.179468
-0.167883
-0.15494
-0.140882
-0.12603
-0.110754
-0.0954538
-0.0805239
-0.0663212
-0.0531433
-0.0412116
-0.0306675
-0.021573
-0.0139249
-0.00766038
-0.00268262
0.00114087
0.003942
0.00587468
0.00706118
0.00765001
0.0077258
0.00742398
0.00677686
0.0059168
0.00481586
0.00361985
0.00223217
0.000823849
-0.191724
-0.198608
-0.201042
-0.201416
-0.201474
-0.201539
-0.201197
-0.199972
-0.197611
-0.194027
-0.189183
-0.183035
-0.175539
-0.166683
-0.156516
-0.145161
-0.13281
-0.119715
-0.106177
-0.0925248
-0.0790892
-0.0661812
-0.0540701
-0.0429677
-0.0330226
-0.0243166
-0.0168744
-0.0106659
-0.00562688
-0.00165674
0.00135022
0.00352326
0.00496911
0.0058195
0.00615449
0.00609768
0.00568668
0.00504226
0.00415145
0.00314443
0.00195124
0.000719703
-0.176518
-0.18281
-0.185113
-0.185528
-0.185608
-0.185659
-0.185348
-0.184241
-0.182125
-0.178931
-0.174635
-0.169206
-0.162612
-0.154842
-0.145935
-0.135984
-0.12514
-0.113605
-0.10162
-0.0894564