/*--------------------------------*- C++ -*----------------------------------*\
  =========                 |
  \\      /  F ield         | OpenFOAM: The Open Source CFD Toolbox
   \\    /   O peration     | Website:  https://openfoam.org
    \\  /    A nd           | Version:  7
     \\/     M anipulation  |
\*---------------------------------------------------------------------------*/
FoamFile
{
    version     2.0;
    format      ascii;
    class       volVectorField;
    location    "15";
    object      U;
}
// * * * * * * * * * * * * * * * * * * * * * * * * * * * * * * * * * * * * * //

dimensions      [0 1 -1 0 0 0 0];

internalField   nonuniform List<vector> 
6386
(
(-0.0133096 0.0182873 8.8704e-20)
(-0.0143013 0.0181123 1.99646e-19)
(-0.0152479 0.0178151 8.95235e-20)
(-0.0161284 0.0173972 -4.32948e-19)
(-0.0340045 0.0379849 2.69196e-19)
(-0.0169107 0.0168536 1.42599e-20)
(-0.0340255 0.0359116 -2.68383e-19)
(-0.0175484 0.0161746 -3.36516e-20)
(-0.0332728 0.0334594 3.15859e-19)
(-0.0300441 0.0413179 -3.24874e-20)
(-0.0179841 0.0153516 -2.02184e-19)
(-0.0315442 0.0306381 2.86305e-19)
(-0.0229476 0.0369936 -1.65974e-19)
(0.00913686 0.0377257 2.32103e-19)
(-0.0181487 0.0143728 3.73585e-19)
(-0.0286083 0.0274611 -4.03839e-19)
(-0.0133033 0.0323616 -9.23275e-20)
(0.0291963 0.0325826 -4.33759e-19)
(-0.0179556 0.013225 -7.65018e-20)
(-0.0242071 0.0239544 1.38307e-20)
(-0.000673256 0.027546 -2.20965e-19)
(0.054132 0.0276701 -7.21695e-20)
(0.142947 0.0283431 3.17541e-19)
(-0.0173039 0.0118998 4.21664e-19)
(-0.0180595 0.0201607 -2.26916e-19)
(0.0153888 0.0227012 2.2941e-19)
(0.0844877 0.0232949 8.09554e-20)
(0.191783 0.0263456 -1.1803e-19)
(0.337666 0.0354142 -5.81544e-20)
(-0.0160808 0.0103967 -2.25146e-19)
(-0.00986908 0.0161464 5.44384e-19)
(0.0353169 0.0180184 -1.53143e-19)
(0.120711 0.019806 3.87934e-20)
(0.248112 0.0262588 7.11908e-19)
(0.415052 0.0408681 -3.16247e-19)
(0.609446 0.0650944 -2.86606e-19)
(-0.0141642 0.00872685 9.95006e-20)
(0.00066548 0.0120085 4.94535e-20)
(0.0595085 0.0137317 6.45698e-20)
(0.163101 0.0175931 -1.06995e-19)
(0.311664 0.0285677 -1.26698e-19)
(0.498272 0.0496165 -4.88663e-19)
(0.703475 0.0800136 6.60067e-20)
(0.898238 0.112259 8.31515e-20)
(-0.0114257 0.00691572 -8.27039e-20)
(0.0138378 0.00788095 -6.8229e-19)
(0.088296 0.0101218 4.67363e-19)
(0.21175 0.0170786 2.14575e-19)
(0.381705 0.0337036 -3.35937e-19)
(0.585077 0.0617168 -5.06414e-20)
(0.79486 0.097506 3.86053e-19)
(0.979598 0.131952 6.43907e-19)
(1.11843 0.161438 1.76103e-20)
(-0.00773529 0.00500577 -1.23633e-19)
(0.0299191 0.00393794 2.44991e-19)
(0.121915 0.00751555 -6.03963e-19)
(0.26649 0.0186999 -2.17366e-19)
(0.457005 0.041985 2.27403e-19)
(0.672818 0.076958 1.2482e-19)
(0.880611 0.116838 -4.41321e-19)
(1.0501 0.151698 -3.11923e-19)
(1.16737 0.178056 -3.93125e-19)
(1.2349 0.186941 2.31142e-19)
(-0.0029656 0.00305797 4.73009e-20)
(0.0491421 0.000395512 4.43718e-19)
(0.160469 0.00627938 2.22476e-19)
(0.326842 0.0228782 2.41323e-19)
(0.535887 0.0535598 -8.42982e-20)
(0.758786 0.0949062 4.04457e-19)
(0.958508 0.137283 -3.51643e-20)
(1.1093 0.171001 2.26568e-19)
(1.20518 0.193557 4.36283e-19)
(1.25554 0.199534 -1.99933e-19)
(0.00300295 0.00115227 -1.35963e-19)
(0.0716821 -0.00249071 -2.69397e-19)
(0.2039 0.00680619 -1.74457e-19)
(0.391997 0.0299756 1.71793e-19)
(0.616357 0.0683748 3.52418e-20)
(0.840545 0.115002 -3.45345e-19)
(1.02722 0.158223 7.95343e-20)
(1.15758 0.189558 9.88193e-20)
(1.23337 0.207935 6.10693e-20)
(1.26897 0.210998 7.49326e-20)
(0.0102756 -0.000612327 9.18572e-20)
(0.0976393 -0.00443071 2.44898e-19)
(0.251954 0.00949498 2.40493e-19)
(0.460824 0.0402502 -2.99279e-19)
(0.696313 0.0861906 -2.14455e-19)
(0.91618 0.136666 1.29243e-19)
(1.08621 0.179196 2.11795e-19)
(1.19581 0.207234 -5.34528e-20)
(1.25354 0.221296 -2.21915e-19)
(1.27689 0.221611 -5.98844e-20)
(0.0189366 -0.00211939 5.91407e-20)
(0.12702 -0.00510938 -1.17821e-20)
(0.304169 0.014724 -1.10945e-19)
(0.531937 0.053821 -1.70905e-20)
(0.773763 0.106635 -1.82593e-20)
(0.98439 0.159369 1.63373e-19)
(1.13558 0.199886 -2.6172e-19)
(1.22518 0.224008 -1.63367e-19)
(1.26717 0.233801 -5.33985e-21)
(1.28065 0.231621 1.09995e-19)
(0.029043 -0.00323759 2.78668e-19)
(0.159721 -0.0041985 -5.26909e-20)
(0.35987 0.0228202 -8.79465e-20)
(0.603799 0.070657 -1.41567e-20)
(0.846998 0.129273 -4.13434e-20)
(1.04446 0.182677 -1.79618e-19)
(1.17587 0.220106 1.12034e-19)
(1.2469 0.239939 -1.5484e-19)
(1.27558 0.24563 1.00138e-19)
(1.28129 0.241236 2.77452e-19)
(0.0406183 -0.00382389 -1.20436e-19)
(0.19552 -0.00137173 -2.52171e-19)
(0.41819 0.0340301 -3.17979e-20)
(0.674844 0.090592 3.02466e-19)
(0.914697 0.153659 9.49467e-20)
(1.09618 0.20625 2.0738e-19)
(1.20784 0.239765 3.39805e-19)
(1.26218 0.255128 7.49829e-20)
(1.27985 0.256957 7.70011e-20)
(1.27957 0.250614 -2.04857e-19)
(0.0536461 -0.00372803 1.08339e-20)
(0.234071 0.00367801 1.72686e-19)
(0.47811 0.0484975 1.79957e-19)
(0.743602 0.113358 -1.94302e-19)
(0.975944 0.179379 2.43944e-19)
(1.13968 0.229841 -2.11427e-19)
(1.23238 0.258839 -4.62812e-20)
(1.27209 0.269696 -7.0256e-20)
(1.28085 0.267935 -7.36505e-20)
(1.27603 0.259869 -1.0727e-19)
(0.0680668 -0.00279778 -1.1301e-20)
(0.274907 0.0112203 -1.76013e-20)
(0.53852 0.0662532 -1.3071e-20)
(0.808788 0.138622 -1.0557e-20)
(1.0302 0.206065 5.04486e-20)
(1.17536 0.253272 5.57838e-20)
(1.25039 0.277344 -5.82743e-20)
(1.27755 0.283759 -4.16288e-20)
(1.27925 0.278683 -4.583e-20)
(1.27103 0.269069 1.39941e-19)
(0.0837743 -0.000885017 -1.79857e-20)
(0.317451 0.0214694 4.70099e-20)
(0.598281 0.0872178 7.43751e-20)
(0.869355 0.166019 -2.30173e-20)
(1.07723 0.233399 -1.65969e-19)
(1.20375 0.276421 -1.28797e-19)
(1.26272 0.29532 -4.81632e-21)
(1.27934 0.297421 9.65035e-20)
(1.27553 0.289289 -1.50044e-20)
(1.26483 0.278249 -3.88135e-20)
(0.100616 0.00214772 -4.8251e-20)
(0.361038 0.0345696 2.60012e-20)
(0.656294 0.111214 -2.79896e-20)
(0.924508 0.195174 6.17607e-21)
(1.11704 0.261107 2.00687e-20)
(1.22547 0.299204 2.82274e-20)
(1.27015 0.312809 -4.97333e-21)
(1.27805 0.310764 -5.74237e-20)
(1.27007 0.299805 3.40915e-21)
(1.25758 0.287412 1.87571e-20)
(0.118395 0.00642047 -1.60544e-20)
(0.404943 0.0505845 -3.25604e-23)
(0.711546 0.137983 4.03588e-21)
(0.973694 0.225717 -3.89887e-21)
(1.14982 0.288955 2.68285e-20)
(1.24112 0.32156 8.97149e-21)
(1.27332 0.329851 4.99354e-21)
(1.27418 0.323842 -1.92306e-21)
(1.2631 0.310252 -8.22811e-21)
(1.24938 0.296537 -1.75373e-20)
(0.136874 0.0120293 -7.62585e-21)
(0.448405 0.0694923 -2.31347e-20)
(0.763152 0.167206 1.73937e-20)
(1.01657 0.257288 -1.73747e-21)
(1.17585 0.316735 1.62841e-20)
(1.2513 0.343438 1.45441e-20)
(1.27281 0.34647 1.12781e-20)
(1.26809 0.336682 -8.83835e-21)
(1.2548 0.320621 -8.91592e-21)
(1.24029 0.305584 -1.41717e-20)
(0.155781 0.0190404 -2.70565e-20)
(0.490665 0.0911856 -2.68145e-20)
(0.810373 0.198517 -1.69827e-20)
(1.05297 0.289542 -1.62273e-20)
(1.1955 0.344265 3.38161e-20)
(1.25656 0.364791 4.72563e-20)
(1.26907 0.362674 -6.0692e-21)
(1.26005 0.349285 -4.32209e-20)
(1.24527 0.330879 -6.98457e-21)
(1.23034 0.314504 -6.15693e-21)
(0.174819 0.0274855 -3.0947e-20)
(0.530992 0.115477 1.4699e-20)
(0.852626 0.231522 4.07594e-20)
(1.08287 0.322145 1.4942e-20)
(1.20916 0.371372 -2.09298e-19)
(1.25739 0.385567 -2.5445e-20)
(1.26248 0.378449 -2.66837e-20)
(1.25026 0.361627 7.57242e-20)
(1.2346 0.340973 -2.82528e-20)
(1.21956 0.323234 -1.30091e-20)
(0.193675 0.0373585 3.04216e-20)
(0.56871 0.142105 -6.88682e-20)
(0.889474 0.265805 -1.25793e-19)
(1.10636 0.35478 3.59683e-20)
(1.21723 0.397895 9.93407e-20)
(1.25423 0.405705 1.95568e-20)
(1.25334 0.393761 1.41779e-20)
(1.23886 0.373658 -2.97915e-20)
(1.22283 0.350826 -3.62706e-20)
(1.20797 0.331702 8.53642e-20)
(0.212027 0.0486142 6.58226e-20)
(0.603212 0.17075 2.94752e-19)
(0.92062 0.300942 4.59454e-20)
(1.12359 0.387139 -1.80633e-19)
(1.22011 0.423677 9.47597e-20)
(1.24746 0.425133 -1.28876e-20)
(1.24189 0.408557 -1.48029e-19)
(1.22595 0.385311 1.19221e-20)
(1.20999 0.360349 -3.0461e-20)
(1.19554 0.339827 -6.48135e-20)
(0.229557 0.0611685 -2.76083e-19)
(0.633981 0.201039 -3.12139e-19)
(0.945893 0.336506 -5.11836e-20)
(1.13479 0.418927 4.48689e-19)
(1.21818 0.44856 -1.8663e-20)
(1.2374 0.44377 2.59974e-19)
(1.22832 0.422769 1.66313e-19)
(1.21161 0.396506 1.30561e-19)
(1.19606 0.369446 2.40305e-20)
(1.18218 0.347531 -7.31176e-20)
(0.24596 0.0748998 2.59326e-19)
(0.660592 0.23256 -2.59922e-19)
(0.965228 0.372071 1.60393e-19)
(1.14024 0.44986 -1.66495e-19)
(1.21182 0.472387 3.87631e-20)
(1.22435 0.46152 -1.87259e-19)
(1.2128 0.436315 1.20978e-20)
(1.19591 0.407164 -1.79252e-20)
(1.18104 0.378063 2.52248e-20)
(1.16769 0.354746 1.23912e-19)
(0.260948 0.0896531 2.07613e-20)
(0.682721 0.264875 8.08878e-20)
(0.978654 0.407217 -1.16102e-19)
(1.14022 0.479664 -4.49157e-20)
(1.20137 0.495001 -8.15314e-20)
(1.20857 0.478277 1.67163e-19)
(1.19546 0.449098 -2.02489e-19)
(1.17892 0.417203 -6.3572e-20)
(1.16496 0.386208 2.68053e-20)
(1.15204 0.361383 -3.86851e-20)
(0.274265 0.105243 3.68753e-20)
(0.700142 0.297531 1.3919e-19)
(0.986278 0.441536 5.12231e-19)
(1.13506 0.508073 -3.71788e-19)
(1.18715 0.516241 -1.61937e-19)
(1.19027 0.493923 -7.70222e-20)
(1.17641 0.461005 1.91882e-19)
(1.16068 0.426509 6.16858e-20)
(1.14787 0.393863 -9.43974e-20)
(1.13574 0.367335 -3.55837e-20)
(0.285687 0.121459 -1.05319e-19)
(0.712724 0.33007 -2.31421e-19)
(0.98827 0.474635 -3.80061e-19)
(1.12508 0.534836 2.9287e-19)
(1.16948 0.535948 7.30371e-21)
(1.16965 0.508336 -1.80174e-19)
(1.15578 0.471915 7.12244e-20)
(1.14131 0.434966 -5.4422e-21)
(1.12976 0.400768 4.21097e-20)
(1.11894 0.372687 -8.97273e-21)
(0.295031 0.138071 -5.76559e-20)
(0.720422 0.362039 3.86301e-19)
(0.984855 0.506135 4.38043e-19)
(1.11063 0.55971 9.81276e-20)
(1.14864 0.553967 -6.86055e-20)
(1.14692 0.521387 3.54851e-19)
(1.13373 0.481708 -1.15538e-19)
(1.12083 0.44249 4.1116e-20)
(1.11067 0.406811 1.27699e-19)
(1.1015 0.377238 2.15428e-20)
(0.302154 0.154835 -2.31161e-19)
(0.723268 0.393 1.15232e-19)
(0.976305 0.53568 -3.50762e-19)
(1.09206 0.582468 -1.49506e-19)
(1.12493 0.570144 8.09754e-20)
(1.12228 0.532935 -1.12893e-21)
(1.11036 0.490262 -1.86191e-19)
(1.09928 0.448972 -8.70379e-20)
(1.09073 0.411894 -7.51921e-20)
(1.08339 0.380902 -2.08766e-20)
(0.306957 0.1715 -1.68027e-19)
(0.721369 0.422531 -4.40894e-19)
(0.962949 0.562939 3.2701e-19)
(1.06971 0.602888 2.37877e-21)
(1.09862 0.584314 6.10568e-20)
(1.09593 0.542856 -1.56558e-19)
(1.08574 0.497453 1.6225e-19)
(1.07676 0.4543 9.31045e-20)
(1.07 0.415925 2.08705e-20)
(1.06467 0.383593 9.72409e-21)
(0.309387 0.187814 1.80448e-19)
(0.714913 0.450235 3.7679e-20)
(0.945181 0.587638 -2.76918e-19)
(1.04387 0.620746 5.98392e-20)
(1.06996 0.596322 -7.79497e-20)
(1.06802 0.551004 -1.01173e-19)
(1.06002 0.50317 2.81495e-21)
(1.05337 0.458368 -1.03296e-19)
(1.04856 0.418805 1.47901e-21)
(1.04544 0.385236 8.43288e-21)
(0.309442 0.203525 -1.61192e-19)
(0.704176 0.475725 5.45373e-19)
(0.923358 0.609543 -2.88746e-19)
(1.01481 0.635848 2.43892e-19)
(1.03925 0.605996 1.95484e-19)
(1.03875 0.557252 -2.05008e-20)
(1.03331 0.507297 -7.37341e-20)
(1.02921 0.461077 1.69244e-20)
(1.0265 0.420433 -1.69373e-20)
(1.02576 0.385736 4.49548e-21)
(0.307177 0.218386 9.60339e-20)
(0.689481 0.498668 -1.54779e-19)
(0.89757 0.628279 3.14998e-19)
(0.983022 0.648137 -9.76297e-20)
(1.00679 0.613186 -9.53378e-20)
(1.00831 0.561479 1.40847e-19)
(1.00578 0.509731 -1.13388e-20)
(1.00439 0.462339 9.35875e-21)
(1.00391 0.420716 -8.36832e-21)
(1.00572 0.385003 1.12575e-20)
(0.302682 0.232147 -1.30254e-19)
(0.671082 0.518929 -4.77245e-20)
(0.868104 0.643518 -6.51316e-20)
(0.948975 0.657342 -1.77798e-20)
(0.972835 0.617845 -1.34557e-19)
(0.976886 0.563586 -3.95336e-20)
(0.977553 0.510376 -2.26103e-21)
(0.979022 0.462076 -4.86735e-20)
(0.980923 0.419587 1.50924e-19)
(0.985599 0.382993 7.6487e-20)
(0.29604 0.244482 1.51881e-19)
(0.649124 0.536153 -2.08003e-19)
(0.835762 0.655391 -1.42166e-20)
(0.912998 0.663264 -1.22826e-19)
(0.93765 0.619847 6.85454e-20)
(0.944674 0.563476 -1.94463e-20)
(0.948763 0.509132 -3.45823e-21)
(0.953202 0.460182 -1.58006e-20)
(0.957809 0.416968 -3.96401e-20)
(0.966094 0.379742 -1.5269e-19)
(0.287296 0.25517 -8.7592e-21)
(0.623883 0.549851 5.57542e-20)
(0.801021 0.663658 -7.46457e-20)
(0.875393 0.665902 4.89686e-20)
(0.901488 0.619111 3.0578e-20)
(0.911852 0.56107 4.58414e-20)
(0.919513 0.505906 1.51961e-19)
(0.927036 0.456497 3.20837e-20)
(0.934957 0.412613 -8.78009e-20)
(0.947884 0.37523 -7.60888e-21)
(0.276675 0.264064 3.00794e-20)
(0.595933 0.559904 2.20487e-20)
(0.7642 0.668117 2.49678e-20)
(0.836499 0.665182 2.75745e-22)
(0.864611 0.615571 4.40448e-20)
(0.878599 0.556314 4.65629e-21)
(0.889913 0.500647 -2.65029e-19)
(0.900676 0.450897 2.47483e-20)
(0.912616 0.406065 1.01722e-20)
(0.930114 0.368557 4.25743e-20)
(0.26439 0.271068 9.02653e-21)
(0.565697 0.566186 -3.43098e-20)
(0.72571 0.668635 -4.11945e-20)
(0.796666 0.661045 2.49067e-20)
(0.827281 0.609186 1.20611e-20)
(0.845105 0.549179 -2.02748e-19)
(0.860139 0.493364 2.02672e-19)
(0.874354 0.443532 -1.82717e-19)
(0.890648 0.397549 1.98615e-19)
(0.909914 0.355861 -1.13369e-19)
(0.25062 0.276023 3.70247e-20)
(0.53361 0.56859 3.43561e-20)
(0.685974 0.665148 1.05443e-19)
(0.756242 0.653453 1.09062e-19)
(0.789764 0.599928 3.78548e-20)
(0.811586 0.539637 -3.0268e-21)
(0.830444 0.484037 -1.3237e-19)
(0.84829 0.434544 2.66358e-20)
(0.868022 0.38916 -2.01784e-19)
(0.88662 0.349082 2.57829e-19)
(0.235593 0.278809 7.99308e-21)
(0.500101 0.567035 -3.49833e-20)
(0.645416 0.657629 -2.02531e-19)
(0.715574 0.642391 -1.17017e-19)
(0.752325 0.587785 4.09668e-21)
(0.778265 0.527664 4.25029e-19)
(0.801039 0.472602 3.43631e-19)
(0.822571 0.423623 2.3591e-19)
(0.84538 0.378642 4.86775e-19)
(0.864857 0.338799 2.51869e-19)
(0.219552 0.279339 -3.85817e-21)
(0.465597 0.561477 1.66815e-19)
(0.604454 0.646085 6.29947e-20)
(0.675 0.627876 -6.95844e-20)
(0.715228 0.572768 8.26268e-20)
(0.745356 0.51327 -6.19344e-19)
(0.772066 0.459102 -3.31427e-19)
(0.797185 0.410991 -1.66929e-19)
(0.822799 0.36697 -2.94236e-19)
(0.843834 0.32825 -9.72102e-20)
(0.20275 0.277555 -3.14645e-20)
(0.430521 0.551912 -3.51284e-19)
(0.563498 0.630553 3.60173e-20)
(0.634856 0.609944 1.63831e-19)
(0.678735 0.554906 -5.62388e-20)
(0.713076 0.496471 9.1899e-20)
(0.7437 0.443536 2.94875e-19)
(0.772306 0.396572 -1.27239e-19)
(0.800637 0.353753 -3.74098e-19)
(0.82365 0.316324 -1.6312e-20)
(0.185442 0.273428 8.14789e-20)
(0.395293 0.53837 9.52766e-20)
(0.522947 0.611102 1.84531e-19)
(0.595464 0.588662 -9.13835e-20)
(0.643103 0.534247 -3.81683e-19)
(0.681633 0.477306 -4.17738e-19)
(0.716105 0.425945 -1.54868e-19)
(0.748093 0.380438 4.55909e-19)
(0.779091 0.339122 3.6821e-19)
(0.804296 0.303159 4.10429e-19)
(0.167884 0.266957 -3.14217e-19)
(0.360323 0.520919 3.7758e-19)
(0.483184 0.587829 -2.78677e-19)
(0.557138 0.564116 -2.48297e-19)
(0.608583 0.510863 5.57217e-19)
(0.651231 0.455831 5e-19)
(0.689448 0.406374 5.93744e-19)
(0.724703 0.362613 -2.039e-19)
(0.758307 0.323049 -2.05783e-19)
(0.785804 0.28869 -5.9471e-19)
(0.150331 0.258169 2.33705e-19)
(0.326006 0.499664 -8.3759e-20)
(0.444581 0.560859 3.42562e-19)
(0.52018 0.536418 -3.13433e-19)
(0.575414 0.484842 -4.32656e-20)
(0.622066 0.432119 -8.65777e-19)
(0.663898 0.384886 -3.90179e-19)
(0.70229 0.343151 2.14721e-19)
(0.738417 0.305569 8.26052e-20)
(0.768233 0.272948 -6.35709e-21)
(0.133032 0.247117 1.21376e-19)
(0.292725 0.47474 -3.28518e-19)
(0.407491 0.530345 -4.42625e-19)
(0.484877 0.505702 2.78549e-20)
(0.543828 0.456293 4.27757e-19)
(0.594332 0.40626 -3.39967e-20)
(0.639617 0.361557 -1.43829e-19)
(0.680996 0.322113 -2.45554e-19)
(0.719538 0.286722 -4.59116e-19)
(0.751652 0.255977 1.26605e-20)
(0.116227 0.233879 4.85344e-20)
(0.260843 0.446318 -4.91064e-20)
(0.372246 0.496465 7.26813e-19)
(0.451501 0.472122 2.85136e-19)
(0.514045 0.425343 -9.51135e-20)
(0.56821 0.378359 6.38383e-19)
(0.616762 0.336478 -3.23555e-19)
(0.660956 0.299572 3.89718e-19)
(0.701778 0.266565 1.49996e-19)
(0.736131 0.237841 -2.47653e-19)
(0.100145 0.218559 1.64261e-19)
(0.230702 0.414594 2.34404e-19)
(0.339161 0.459425 -8.41729e-19)
(0.420308 0.435855 -1.24183e-19)
(0.486273 0.392139 -5.45313e-19)
(0.543876 0.348539 7.15097e-20)
(0.59548 0.309752 8.75206e-20)
(0.642295 0.275616 1.33511e-19)
(0.685245 0.245171 4.7001e-19)
(0.721743 0.218613 9.65481e-20)
(0.0850036 0.201281 -2.24524e-19)
(0.20262 0.379795 3.13842e-19)
(0.308526 0.419449 1.80793e-20)
(0.391534 0.397093 7.86191e-20)
(0.460706 0.356841 5.43035e-19)
(0.521491 0.316937 1.01592e-20)
(0.575909 0.281497 1.31746e-19)
(0.625132 0.250342 -6.41397e-20)
(0.670038 0.222624 -2.95358e-19)
(0.708558 0.198378 -8.65848e-20)
(0.071004 0.18219 4.55049e-19)
(0.176891 0.342173 -3.46106e-19)
(0.280606 0.376787 4.32274e-19)
(0.365399 0.35605 -2.67883e-20)
(0.437524 0.319626 -1.02915e-20)
(0.501208 0.283702 -5.12121e-19)
(0.558182 0.251842 9.76262e-20)
(0.609581 0.223862 2.90167e-20)
(0.656253 0.19902 -1.1613e-19)
(0.696642 0.177226 5.02387e-19)
(0.0583301 0.161453 -5.05621e-19)
(0.153779 0.301999 2.74496e-19)
(0.255642 0.331705 -2.70323e-19)
(0.342098 0.312952 -1.5887e-19)
(0.416888 0.280685 -4.58931e-20)
(0.483167 0.248998 1.17587e-19)
(0.542417 0.220928 1.65545e-19)
(0.595745 0.196297 1.6586e-19)
(0.643979 0.174464 -2.83585e-19)
(0.686056 0.155255 -1.89847e-19)
(0.047147 0.139249 1.37024e-19)
(0.13352 0.25957 -6.59137e-20)
(0.233847 0.284487 -4.34828e-20)
(0.321808 0.268042 4.99875e-19)
(0.398944 0.240221 -9.06127e-20)
(0.467492 0.212998 -9.88603e-20)
(0.528725 0.188903 1.84194e-19)
(0.583723 0.167775 -8.84669e-20)
(0.633303 0.149072 6.44126e-20)
(0.67686 0.13257 1.27261e-19)
(0.0375992 0.115777 1.22397e-19)
(0.116321 0.215197 -3.9568e-20)
(0.215406 0.235432 8.87686e-20)
(0.304679 0.221573 -2.7543e-19)
(0.38382 0.198447 6.19303e-20)
(0.454294 0.175883 3.97017e-19)
(0.517205 0.155927 -2.37011e-19)
(0.573606 0.138436 -3.89515e-19)
(0.624308 0.122966 -1.17497e-19)
(0.669111 0.109279 4.74575e-21)
(0.0298094 0.0912464 3.94307e-20)
(0.102352 0.169209 -1.21682e-19)
(0.200474 0.184853 2.40764e-19)
(0.29084 0.173811 -8.60844e-20)
(0.371621 0.155584 1.40173e-19)
(0.443665 0.137843 -3.29153e-19)
(0.507942 0.122161 1.63175e-19)
(0.565479 0.108422 1.37981e-19)
(0.617077 0.0962765 2.10711e-19)
(0.662875 0.0855027 -1.8376e-19)
(0.023877 0.0658773 -1.39289e-19)
(0.0917551 0.121947 6.5817e-20)
(0.189176 0.133072 -1.08976e-19)
(0.280391 0.125029 -1.45488e-19)
(0.36243 0.111863 -3.09005e-19)
(0.435678 0.0990713 2.2045e-19)
(0.501005 0.0877727 -5.39491e-20)
(0.559415 0.0778797 1.63453e-19)
(0.611694 0.0691395 -1.43385e-19)
(0.658233 0.0613709 1.20835e-19)
(0.0198779 0.0398999 4.64563e-20)
(0.084634 0.0737624 -1.50316e-20)
(0.181604 0.0804226 -1.72336e-20)
(0.273407 0.0755085 1.2255e-19)
(0.356308 0.0675161 6.29349e-20)
(0.430384 0.0597651 -6.24004e-20)
(0.496441 0.0529266 -8.87026e-21)
(0.555467 0.0469476 -1.71208e-19)
(0.608238 0.041674 1.23845e-19)
(0.655298 0.0369767 3.72484e-20)
(0.017863 0.0135505 -1.0873e-20)
(0.0810591 0.0250151 -2.40074e-20)
(0.177819 0.0272427 -1.34677e-20)
(0.269935 0.0255356 8.7957e-21)
(0.353289 0.022785 4.89387e-20)
(0.427805 0.0201257 8.81356e-21)
(0.494263 0.0177892 3.0298e-20)
(0.553649 0.0157579 5.42863e-20)
(0.606738 0.013976 -5.06474e-21)
(0.654151 0.0123748 -5.32778e-20)
(0.0178583 -0.0129301 -2.02684e-20)
(0.0810655 -0.0239298 -2.88664e-20)
(0.17785 -0.0261236 4.79343e-21)
(0.269996 -0.0245978 -6.31e-21)
(0.353383 -0.0220856 5.75415e-20)
(0.427939 -0.019639 -1.89519e-21)
(0.494447 -0.0174649 3.19245e-20)
(0.5539 -0.0155446 5.10776e-20)
(0.607093 -0.0138255 7.7151e-21)
(0.654685 -0.012245 -6.17067e-20)
(0.0198643 -0.0392989 7.9764e-20)
(0.0846527 -0.0727045 1.59728e-20)
(0.181696 -0.0793299 -4.57216e-20)
(0.273583 -0.0745969 1.63525e-19)
(0.35658 -0.0668458 1.85529e-20)
(0.430766 -0.0593135 -2.74019e-20)
(0.496953 -0.0526481 -9.89815e-21)
(0.556136 -0.0467991 -1.56704e-19)
(0.609099 -0.0416232 1.04161e-19)
(0.656399 -0.0370082 -1.53254e-20)
(0.023856 -0.0653136 -1.51475e-19)
(0.0917854 -0.120942 1.92941e-20)
(0.189322 -0.13203 -7.60011e-20)
(0.280669 -0.124167 -1.67589e-19)
(0.362854 -0.111245 -3.23063e-19)
(0.436261 -0.0986788 2.2227e-19)
(0.501759 -0.0875626 -9.5234e-22)
(0.560347 -0.077812 1.49787e-19)
(0.612804 -0.0691836 -1.79066e-19)
(0.659501 -0.0615015 1.56829e-19)
(0.0297834 -0.0907352 -1.49326e-20)
(0.102393 -0.168279 1.04223e-20)
(0.200665 -0.183882 -8.26652e-20)
(0.291199 -0.173016 1.18526e-19)
(0.37216 -0.155034 8.74031e-20)
(0.444388 -0.137521 -3.83255e-19)
(0.508842 -0.122022 1.12406e-19)
(0.566534 -0.108422 2.96594e-19)
(0.618244 -0.0963777 9.11256e-20)
(0.664092 -0.0856674 -1.15397e-19)
(0.0375716 -0.11533 -2.60072e-20)
(0.11637 -0.21436 -1.06758e-19)
(0.215632 -0.234549 2.25525e-19)
(0.305098 -0.220857 -2.56035e-19)
(0.384438 -0.197971 -1.59771e-19)
(0.4551 -0.175631 5.79336e-19)
(0.518169 -0.155849 -4.60697e-19)
(0.574677 -0.138482 -2.61342e-19)
(0.625418 -0.123089 -8.49782e-20)
(0.670184 -0.109438 2.44378e-20)
(0.0471212 -0.138874 1.8778e-19)
(0.133579 -0.258838 8.76093e-20)
(0.234097 -0.283702 -7.33644e-20)
(0.322264 -0.267412 5.52933e-19)
(0.399606 -0.239822 -2.52354e-19)
(0.468331 -0.21281 5.53373e-20)
(0.529689 -0.188873 3.32771e-21)
(0.584742 -0.167845 -4.34261e-20)
(0.634298 -0.149194 1.0214e-19)
(0.677763 -0.132702 5.43837e-20)
(0.0583099 -0.161153 -3.9011e-19)
(0.153846 -0.30138 4.40328e-20)
(0.255907 -0.331025 -2.53682e-19)
(0.342574 -0.312412 -9.383e-20)
(0.417563 -0.28036 8.11438e-20)
(0.483999 -0.248866 4.29311e-20)
(0.543338 -0.22093 4.0699e-20)
(0.596673 -0.196375 9.90628e-20)
(0.644838 -0.174571 -4.48884e-20)
(0.686796 -0.155353 -3.39238e-19)
(0.070993 -0.181967 4.00607e-19)
(0.176968 -0.341669 -2.39141e-19)
(0.280879 -0.376215 4.45442e-19)
(0.365878 -0.355598 -5.80126e-20)
(0.43819 -0.319369 -1.07191e-19)
(0.502007 -0.283616 -4.25814e-19)
(0.559033 -0.251866 1.83983e-19)
(0.610401 -0.223937 -2.89113e-19)
(0.656976 -0.199104 1.9042e-19)
(0.697239 -0.177289 2.32638e-19)
(0.0850051 -0.201131 -3.00525e-19)
(0.202709 -0.379406 1.49571e-19)
(0.308802 -0.418984 3.19986e-19)
(0.392006 -0.396727 -3.79104e-20)
(0.461347 -0.356645 5.67515e-19)
(0.522238 -0.316888 4.03607e-20)
(0.576677 -0.281533 -3.20688e-20)
(0.625842 -0.250408 1.50062e-19)
(0.670636 -0.222684 -3.07103e-19)
(0.709037 -0.198411 -1.2203e-19)
(0.100162 -0.218477 2.21036e-19)
(0.230803 -0.414314 3.10671e-19)
(0.339437 -0.459062 -8.18829e-19)
(0.420763 -0.435569 -2.9883e-19)
(0.486878 -0.391999 -1.0279e-19)
(0.544561 -0.34852 -1.91119e-19)
(0.59616 -0.309794 1.97803e-19)
(0.642897 -0.275669 -2.63643e-20)
(0.685733 -0.245208 4.89492e-19)
(0.722126 -0.218621 -4.1535e-20)
(0.11626 -0.233859 -5.74591e-20)
(0.260959 -0.44614 -1.66441e-19)
(0.37252 -0.4962 9.7923e-19)
(0.451935 -0.471911 1.37208e-19)
(0.514607 -0.425252 -1.25378e-19)
(0.568829 -0.378363 6.03575e-19)
(0.617355 -0.336522 -4.63257e-22)
(0.661461 -0.299613 1.21805e-20)
(0.702173 -0.266584 1.58905e-19)
(0.736438 -0.23783 -2.36713e-20)
(0.133084 -0.247149 3.60637e-20)
(0.292857 -0.474656 -2.28534e-19)
(0.407762 -0.53017 -6.04377e-19)
(0.485288 -0.505559 2.69579e-19)
(0.544345 -0.456244 -1.61519e-20)
(0.594885 -0.406283 1.81272e-19)
(0.640129 -0.361602 3.96829e-20)
(0.681415 -0.322144 -4.73958e-19)
(0.719853 -0.286727 -3.7639e-19)
(0.7519 -0.255954 4.46454e-20)
(0.150402 -0.258246 -7.00592e-20)
(0.326156 -0.499662 -6.15306e-20)
(0.444851 -0.560767 4.46352e-19)
(0.520568 -0.536338 -2.01605e-19)
(0.575886 -0.484831 -1.99023e-19)
(0.622557 -0.432159 -7.0024e-19)
(0.664335 -0.384931 -3.62629e-19)
(0.702633 -0.343174 1.86198e-19)
(0.738669 -0.305566 4.64191e-20)
(0.768438 -0.272918 2.06397e-19)
(0.167973 -0.267069 -2.59672e-19)
(0.360492 -0.520989 3.68748e-19)
(0.483454 -0.58781 -6.08019e-19)
(0.557504 -0.564091 2.19998e-19)
(0.609013 -0.510885 2.11572e-19)
(0.651662 -0.455884 7.00679e-19)
(0.689819 -0.406419 4.50395e-19)
(0.724981 -0.362631 -2.3048e-19)
(0.758505 -0.323043 -3.39013e-19)
(0.785978 -0.288661 -3.54133e-19)
(0.185547 -0.273567 1.75498e-19)
(0.395483 -0.5385 2.68136e-20)
(0.523218 -0.611148 3.83035e-21)
(0.59581 -0.588686 -1.8951e-20)
(0.643495 -0.534298 -5.24988e-19)
(0.682013 -0.477371 -4.35712e-20)
(0.716417 -0.425991 -4.17156e-19)
(0.748316 -0.380453 3.60832e-19)
(0.779245 -0.339117 6.69122e-19)
(0.804449 -0.303139 3.34854e-19)
(0.202871 -0.277714 -1.98734e-19)
(0.43073 -0.552092 -3.22061e-19)
(0.563774 -0.630654 -7.9604e-22)
(0.635185 -0.610011 2.38873e-19)
(0.679092 -0.554981 -1.32966e-19)
(0.713409 -0.496545 2.65072e-19)
(0.743963 -0.443583 4.87871e-20)
(0.772484 -0.396587 -1.56574e-19)
(0.800755 -0.353753 -1.93628e-19)
(0.823789 -0.316322 -1.44183e-19)
(0.219688 -0.27951 -5.24388e-20)
(0.465825 -0.561696 1.41058e-19)
(0.604735 -0.646232 1.31201e-19)
(0.675316 -0.627979 8.51843e-22)
(0.715555 -0.572865 -8.28859e-20)
(0.745649 -0.513353 -4.66336e-19)
(0.772287 -0.459151 -3.96824e-19)
(0.797324 -0.411007 -5.12607e-20)
(0.822884 -0.366977 -4.58471e-19)
(0.843963 -0.328272 -2.09107e-19)
(0.235741 -0.278987 2.88644e-20)
(0.500348 -0.567283 -1.46981e-19)
(0.645703 -0.657815 -5.18745e-20)
(0.71588 -0.642526 -2.53751e-19)
(0.752627 -0.587899 1.58035e-19)
(0.778524 -0.527754 4.03129e-19)
(0.801224 -0.472654 2.1379e-19)
(0.822678 -0.423642 2.41531e-19)
(0.845432 -0.378662 5.43095e-19)
(0.864962 -0.338868 8.17867e-20)
(0.250778 -0.276203 4.71611e-20)
(0.533875 -0.568859 2.41212e-20)
(0.68627 -0.665365 6.6866e-20)
(0.756542 -0.653613 8.42672e-20)
(0.790046 -0.600057 7.60857e-20)
(0.811817 -0.539733 -1.89365e-20)
(0.8306 -0.484091 -6.30137e-20)
(0.848378 -0.434562 -1.08612e-19)
(0.868058 -0.389176 -1.61026e-19)
(0.886717 -0.349168 2.65572e-19)
(0.264555 -0.271245 3.83691e-21)
(0.565978 -0.566468 -4.53553e-20)
(0.726016 -0.668875 -1.83941e-20)
(0.796962 -0.661227 -5.23557e-20)
(0.827548 -0.609327 8.93366e-20)
(0.845312 -0.54928 -1.90645e-19)
(0.86027 -0.49342 5.69896e-20)
(0.874425 -0.443554 3.26288e-20)
(0.89066 -0.3976 1.77737e-22)
(0.909863 -0.35615 -1.0915e-19)
(0.276846 -0.264236 -5.35883e-21)
(0.596228 -0.560192 5.55067e-20)
(0.764516 -0.668373 6.17024e-21)
(0.836795 -0.66538 1.48938e-20)
(0.864866 -0.615721 -1.59452e-21)
(0.878789 -0.556417 6.67432e-20)
(0.890025 -0.500701 -2.30149e-19)
(0.900737 -0.450911 6.8535e-20)
(0.912643 -0.406081 -1.54374e-19)
(0.930054 -0.368662 5.43362e-20)
(0.28747 -0.255333 -9.18468e-20)
(0.624191 -0.55014 1.24717e-19)
(0.801348 -0.663925 -5.09702e-20)
(0.875691 -0.666111 2.79505e-20)
(0.901737 -0.619267 2.31146e-20)
(0.912031 -0.561175 8.28281e-20)
(0.919614 -0.505958 1.4278e-19)
(0.927094 -0.456502 -3.8943e-20)
(0.935015 -0.412606 -6.75166e-20)
(0.947902 -0.375283 -1.49642e-21)
(0.296215 -0.244635 2.22179e-19)
(0.649443 -0.536437 -2.09169e-19)
(0.836099 -0.655665 -5.01507e-20)
(0.9133 -0.663482 -8.10349e-20)
(0.937896 -0.620008 6.78508e-20)
(0.944847 -0.563582 -1.62662e-20)
(0.948861 -0.509183 -3.18628e-20)
(0.953265 -0.460186 -2.10965e-20)
(0.957895 -0.416962 6.28036e-20)
(0.966179 -0.379792 -2.9214e-19)
(0.302856 -0.232289 -3.6221e-20)
(0.671408 -0.519204 -2.04571e-20)
(0.868451 -0.643793 -1.42774e-19)
(0.949283 -0.657566 -3.93898e-20)
(0.973081 -0.618009 -8.10819e-20)
(0.977057 -0.563693 -5.07479e-20)
(0.977653 -0.510429 -1.10176e-20)
(0.979093 -0.462085 -1.99055e-20)
(0.981025 -0.419589 1.76538e-19)
(0.98571 -0.383041 4.86789e-20)
(0.307348 -0.218515 3.62652e-19)
(0.689812 -0.498931 -2.08082e-19)
(0.897928 -0.628553 1.36721e-19)
(0.983338 -0.648364 2.55066e-20)
(1.00704 -0.613353 -6.7437e-20)
(1.00848 -0.561588 1.08133e-19)
(1.00588 -0.509787 3.43462e-21)
(1.00447 -0.462355 -1.06769e-22)
(1.00402 -0.420725 -2.90922e-20)
(1.00583 -0.385045 2.27116e-20)
(0.30961 -0.203642 -1.84715e-19)
(0.70451 -0.475975 4.57245e-19)
(0.923724 -0.609812 -1.21741e-19)
(1.01513 -0.636075 1.4105e-20)
(1.0395 -0.606164 2.86555e-19)
(1.03893 -0.557362 -4.74717e-20)
(1.03342 -0.507356 -4.4124e-20)
(1.0293 -0.461099 3.37168e-20)
(1.02662 -0.420447 -1.31234e-20)
(1.02587 -0.385774 3.08565e-21)
(0.309551 -0.187919 1.15476e-19)
(0.71525 -0.450469 6.98576e-20)
(0.945555 -0.5879 2.45567e-20)
(1.0442 -0.62097 -7.96952e-20)
(1.07022 -0.59649 -5.26919e-20)
(1.0682 -0.551116 -1.73578e-19)
(1.06013 -0.503232 4.76813e-23)
(1.05346 -0.458396 -6.83272e-20)
(1.04868 -0.418824 1.17283e-21)
(1.04554 -0.385271 3.5925e-21)
(0.307115 -0.171593 -7.8045e-20)
(0.721704 -0.422749 -6.95708e-19)
(0.96333 -0.563192 4.11721e-19)
(1.07005 -0.603108 1.5314e-19)
(1.09889 -0.584481 -1.91792e-19)
(1.09612 -0.542968 -4.42091e-20)
(1.08587 -0.497518 1.2401e-19)
(1.07686 -0.454333 1.40219e-19)
(1.07011 -0.415949 1.17196e-21)
(1.06476 -0.383626 1.45292e-20)
(0.302304 -0.154915 -1.36416e-19)
(0.7236 -0.393201 2.46553e-19)
(0.976689 -0.53592 -5.89473e-19)
(1.09241 -0.582683 -1.65049e-19)
(1.12521 -0.570309 1.57189e-19)
(1.12248 -0.533048 3.40209e-20)
(1.11049 -0.490329 -1.71725e-19)
(1.09939 -0.449009 -9.08868e-20)
(1.09084 -0.411923 -9.45068e-20)
(1.08347 -0.380934 -2.47723e-20)
(0.295173 -0.138141 5.32525e-20)
(0.720749 -0.362222 4.94298e-19)
(0.985243 -0.506363 2.1432e-19)
(1.11099 -0.559919 2.10868e-19)
(1.14892 -0.55413 -5.8177e-20)
(1.14712 -0.5215 2.2964e-19)
(1.13388 -0.481777 -2.80683e-20)
(1.12095 -0.442531 8.01744e-20)
(1.11079 -0.406843 1.15808e-19)
(1.10157 -0.377269 -4.42071e-20)
(0.285821 -0.121519 -1.63835e-19)
(0.713043 -0.330234 -3.08133e-19)
(0.988659 -0.474849 -1.97735e-19)
(1.12545 -0.535037 1.54525e-19)
(1.16977 -0.536108 2.39282e-20)
(1.16986 -0.508449 -2.23613e-19)
(1.15593 -0.471986 2.88056e-20)
(1.14143 -0.43501 5.06475e-20)
(1.12988 -0.400801 3.3502e-20)
(1.11901 -0.372717 1.76597e-20)
(0.27439 -0.105293 1.09145e-19)
(0.700451 -0.297677 2.84274e-19)
(0.986666 -0.441736 2.57144e-19)
(1.13543 -0.508266 -2.79604e-19)
(1.18745 -0.516397 -1.75673e-19)
(1.19049 -0.494035 7.75169e-20)
(1.17657 -0.461077 1.15623e-19)
(1.16081 -0.426555 -1.91037e-20)
(1.14798 -0.393897 -8.53133e-20)
(1.13581 -0.367363 -2.36197e-20)
(0.261063 -0.0896939 7.11873e-20)
(0.683019 -0.265004 -1.27606e-20)
(0.97904 -0.407401 -1.19637e-19)
(1.1406 -0.479848 -1.60004e-20)
(1.20168 -0.495153 -2.06061e-20)