/*--------------------------------*- C++ -*----------------------------------*\
  =========                 |
  \\      /  F ield         | OpenFOAM: The Open Source CFD Toolbox
   \\    /   O peration     | Website:  https://openfoam.org
    \\  /    A nd           | Version:  7
     \\/     M anipulation  |
\*---------------------------------------------------------------------------*/
FoamFile
{
    version     2.0;
    format      ascii;
    class       volScalarField;
    location    "25";
    object      p;
}
// * * * * * * * * * * * * * * * * * * * * * * * * * * * * * * * * * * * * * //

dimensions      [0 2 -2 0 0 0 0];

internalField   nonuniform List<scalar> 
6386
(
-0.248378
-0.250711
-0.253234
-0.255986
-0.255286
-0.259017
-0.257979
-0.262374
-0.260944
-0.25868
-0.26611
-0.264228
-0.261523
-0.258186
-0.270287
-0.267877
-0.264688
-0.260841
-0.274963
-0.271939
-0.268224
-0.263838
-0.259276
-0.280192
-0.276465
-0.272182
-0.267229
-0.262111
-0.257043
-0.286024
-0.281498
-0.276608
-0.271061
-0.265345
-0.259599
-0.253391
-0.2925
-0.287079
-0.281549
-0.275375
-0.269003
-0.262469
-0.255284
-0.247334
-0.299652
-0.293244
-0.287041
-0.280203
-0.273091
-0.265631
-0.257266
-0.247739
-0.235605
-0.307497
-0.300018
-0.293116
-0.285561
-0.277597
-0.269037
-0.259252
-0.247958
-0.234304
-0.220969
-0.316038
-0.307415
-0.299787
-0.291446
-0.282489
-0.27261
-0.261137
-0.247905
-0.232634
-0.217757
-0.325255
-0.315432
-0.30705
-0.29783
-0.287701
-0.276235
-0.262801
-0.247498
-0.230577
-0.214267
-0.335107
-0.324046
-0.314875
-0.304655
-0.293132
-0.279769
-0.264125
-0.246666
-0.228104
-0.210447
-0.345524
-0.333206
-0.323199
-0.311828
-0.298637
-0.283051
-0.264992
-0.245342
-0.225183
-0.206246
-0.356404
-0.34283
-0.331924
-0.319215
-0.304033
-0.28591
-0.26529
-0.243462
-0.22177
-0.201617
-0.36761
-0.3528
-0.340913
-0.326637
-0.309108
-0.288176
-0.264914
-0.240962
-0.217819
-0.196508
-0.378967
-0.362958
-0.349985
-0.333872
-0.313637
-0.289688
-0.263766
-0.237778
-0.213275
-0.19087
-0.390263
-0.373107
-0.358921
-0.34066
-0.317387
-0.290289
-0.26175
-0.233842
-0.208083
-0.184655
-0.401249
-0.383011
-0.367459
-0.346718
-0.320131
-0.289834
-0.258774
-0.229088
-0.202184
-0.177817
-0.411643
-0.392399
-0.375303
-0.35175
-0.321655
-0.288187
-0.254749
-0.223447
-0.19552
-0.170314
-0.421136
-0.400969
-0.382129
-0.355464
-0.321756
-0.285223
-0.24959
-0.216852
-0.188034
-0.162108
-0.429398
-0.408398
-0.387603
-0.357582
-0.320254
-0.280828
-0.243217
-0.209238
-0.179672
-0.153161
-0.436087
-0.414348
-0.391385
-0.357844
-0.316985
-0.274899
-0.235556
-0.200544
-0.170387
-0.143444
-0.44086
-0.418476
-0.393155
-0.35602
-0.311808
-0.267346
-0.22654
-0.190716
-0.160143
-0.132941
-0.443381
-0.420446
-0.392612
-0.351909
-0.304606
-0.258093
-0.216107
-0.179702
-0.148908
-0.121643
-0.443335
-0.419937
-0.389493
-0.345347
-0.295285
-0.247076
-0.204207
-0.167456
-0.136643
-0.109493
-0.440431
-0.416659
-0.383577
-0.336207
-0.283776
-0.234254
-0.190809
-0.153949
-0.123284
-0.0963051
-0.434416
-0.410358
-0.374691
-0.324399
-0.270038
-0.219603
-0.175899
-0.139175
-0.108782
-0.0817955
-0.425078
-0.400827
-0.362707
-0.309872
-0.254051
-0.203113
-0.159473
-0.123151
-0.0932016
-0.0659858
-0.412256
-0.387916
-0.347544
-0.292611
-0.235824
-0.184792
-0.141537
-0.105896
-0.0766257
-0.0499001
-0.395841
-0.371527
-0.32917
-0.272635
-0.215387
-0.164663
-0.122134
-0.0874868
-0.0589194
-0.0333295
-0.375779
-0.35162
-0.3076
-0.250002
-0.192797
-0.142789
-0.10138
-0.0679008
-0.0402453
-0.0160666
-0.352071
-0.328212
-0.282902
-0.224807
-0.168139
-0.119282
-0.0792725
-0.0471931
-0.0207052
0.00190297
-0.324771
-0.301381
-0.255218
-0.19715
-0.141501
-0.0942026
-0.0558909
-0.0254474
-0.000369569
0.0204951
-0.293989
-0.271271
-0.224761
-0.167086
-0.113001
-0.0676464
-0.0313316
-0.00275331
0.0206916
0.0396008
-0.259896
-0.238099
-0.191638
-0.134745
-0.0827924
-0.0397448
-0.00570872
0.0207939
0.0424048
0.0591356
-0.22272
-0.202144
-0.155508
-0.100661
-0.0510712
-0.0106444
0.020852
0.0450933
0.0646857
0.0789956
-0.182675
-0.163624
-0.116947
-0.0648241
-0.0180311
0.0194939
0.0482267
0.0700504
0.0873819
0.0987952
-0.139971
-0.122185
-0.0770381
-0.0275013
0.016143
0.0505102
0.0763132
0.0955948
0.110215
0.117686
-0.0950062
-0.0787164
-0.0356283
0.0110303
0.0512441
0.0822444
0.105021
0.121656
0.13292
0.135213
-0.048236
-0.0334984
0.00710076
0.0505044
0.0870446
0.114519
0.134202
0.14804
0.15554
0.153405
5.72525e-05
0.0130345
0.0508414
0.0906494
0.123307
0.147131
0.163611
0.174355
0.17808
0.177052
0.0494659
0.0604844
0.0952452
0.131181
0.15979
0.179858
0.192984
0.200431
0.201159
0.200819
0.099561
0.108459
0.139953
0.171805
0.196242
0.212479
0.22215
0.22633
0.224492
0.223285
0.14991
0.156562
0.184604
0.212221
0.23241
0.244766
0.250935
0.251922
0.247657
0.244825
0.20008
0.204389
0.228841
0.25213
0.268038
0.276502
0.279172
0.277033
0.270334
0.265452
0.249635
0.251541
0.27231
0.291234
0.302874
0.307474
0.306683
0.301489
0.292347
0.285217
0.298147
0.29762
0.314666
0.329241
0.33667
0.337472
0.333291
0.325119
0.31355
0.30409
0.345198
0.34224
0.355574
0.365868
0.369186
0.366292
0.358821
0.347768
0.333822
0.322015
0.390381
0.385027
0.39471
0.400841
0.40019
0.393738
0.383104
0.369287
0.353047
0.338921
0.433309
0.425624
0.431766
0.433899
0.429461
0.41962
0.405979
0.38954
0.371113
0.35473
0.473611
0.463694
0.466453
0.464798
0.456789
0.443761
0.427294
0.408398
0.387913
0.369365
0.510943
0.49892
0.498497
0.493306
0.48198
0.465995
0.446907
0.425739
0.403344
0.382754
0.544985
0.531012
0.52765
0.519213
0.504854
0.486167
0.464688
0.441451
0.417313
0.394828
0.575448
0.559705
0.553685
0.542327
0.525247
0.504139
0.480518
0.455432
0.429733
0.405526
0.60207
0.584763
0.576398
0.562477
0.543014
0.519787
0.494293
0.467593
0.440526
0.414793
0.624626
0.60598
0.595615
0.579513
0.558028
0.533003
0.505922
0.477854
0.449626
0.422584
0.642923
0.623181
0.611184
0.593309
0.570182
0.543698
0.515326
0.486149
0.456976
0.42886
0.656803
0.636225
0.622985
0.603762
0.579389
0.551796
0.522445
0.492425
0.462532
0.433588
0.666147
0.645003
0.630924
0.610793
0.585581
0.557242
0.527231
0.496643
0.466264
0.43676
0.670874
0.649441
0.634938
0.614347
0.58871
0.559994
0.52965
0.498776
0.468159
0.43839
0.670941
0.649501
0.634992
0.614395
0.588752
0.56003
0.52968
0.498801
0.468182
0.438425
0.666346
0.645181
0.631085
0.610935
0.585703
0.557345
0.527314
0.496708
0.466315
0.436802
0.657124
0.636513
0.623245
0.60399
0.579583
0.551955
0.52257
0.492516
0.462593
0.43362
0.643353
0.623567
0.611532
0.59361
0.570434
0.5439
0.515478
0.486253
0.457038
0.428882
0.625148
0.606449
0.596035
0.579873
0.558324
0.533235
0.50609
0.477963
0.449684
0.422597
0.602665
0.585298
0.576875
0.562881
0.543341
0.520036
0.494469
0.467702
0.440578
0.414798
0.576094
0.560287
0.554201
0.542761
0.525592
0.504397
0.480696
0.455539
0.42978
0.405524
0.545663
0.531625
0.528192
0.519664
0.505208
0.486428
0.464864
0.441554
0.417358
0.394824
0.511634
0.499546
0.49905
0.493762
0.482335
0.466254
0.44708
0.42584
0.403388
0.382749
0.474297
0.464318
0.467004
0.465251
0.45714
0.444016
0.427463
0.408498
0.387958
0.369362
0.433975
0.426234
0.432306
0.434342
0.429802
0.419868
0.406145
0.389641
0.371161
0.354729
0.391016
0.385612
0.39523
0.401268
0.40052
0.393979
0.383268
0.36939
0.353099
0.338923
0.345791
0.342791
0.356067
0.366275
0.369502
0.366525
0.358983
0.347873
0.333879
0.322021
0.298692
0.298131
0.315128
0.329626
0.336972
0.337697
0.333452
0.325228
0.313613
0.304098
0.250127
0.252008
0.272737
0.291594
0.30316
0.307692
0.306843
0.301603
0.292416
0.285227
0.200517
0.20481
0.229231
0.252465
0.268309
0.276713
0.279331
0.277152
0.270413
0.265462
0.150293
0.156935
0.184957
0.21253
0.232666
0.24497
0.251094
0.252045
0.247748
0.24484
0.0998887
0.108785
0.140269
0.172087
0.196483
0.212676
0.222308
0.226459
0.224602
0.223317
0.0497412
0.0607639
0.0955252
0.131439
0.160015
0.180051
0.193142
0.200565
0.201294
0.200899
0.000283352
0.01327
0.0510866
0.0908831
0.123519
0.147317
0.163771
0.174491
0.178237
0.17725
-0.0480554
-0.0333043
0.00731327
0.0507149
0.087242
0.1147
0.134365
0.148184
0.155716
0.153748
-0.0948667
-0.0785608
-0.0354459
0.0112186
0.0514279
0.0824198
0.105186
0.121809
0.133094
0.135518
-0.139869
-0.122065
-0.076883
-0.0273341
0.0163131
0.0506781
0.0764766
0.0957484
0.110373
0.117909
-0.182605
-0.163537
-0.116817
-0.0646774
-0.0178746
0.0196528
0.048384
0.0701992
0.0875251
0.0989676
-0.222677
-0.202079
-0.155407
-0.100534
-0.050928
-0.0104953
0.0210013
0.0452352
0.0648191
0.0791441
-0.259876
-0.238056
-0.191558
-0.134636
-0.082662
-0.0396056
-0.00556779
0.0209289
0.042531
0.0592694
-0.293989
-0.271248
-0.2247
-0.166991
-0.112882
-0.0675167
-0.0311988
-0.00262495
0.0208114
0.0397227
-0.324787
-0.301373
-0.255173
-0.197069
-0.141394
-0.0940821
-0.0557658
-0.0253255
-0.000255686
0.0206081
-0.352098
-0.328217
-0.28287
-0.224738
-0.168042
-0.11917
-0.0791547
-0.0470773
-0.0205965
0.00200965
-0.375815
-0.351635
-0.307579
-0.249943
-0.19271
-0.142685
-0.101268
-0.0677905
-0.0401409
-0.0159641
-0.395883
-0.371548
-0.329157
-0.272585
-0.215307
-0.164566
-0.122029
-0.0873812
-0.0588187
-0.0332299
-0.4123
-0.38794
-0.347537
-0.292568
-0.235751
-0.184701
-0.141438
-0.105795
-0.076528
-0.0498027
-0.425122
-0.400852
-0.362704
-0.309835
-0.253984
-0.203027
-0.159378
-0.123054
-0.0931064
-0.0658909
-0.434457
-0.410382
-0.374689
-0.324365
-0.269975
-0.219521
-0.175807
-0.139081
-0.108689
-0.0817046
-0.440467
-0.41668
-0.383575
-0.336175
-0.283717
-0.234176
-0.190721
-0.153857
-0.123193
-0.0962165
-0.443365
-0.419953
-0.389489
-0.345316
-0.295228
-0.247001
-0.204122
-0.167366
-0.136554
-0.109406
-0.443404
-0.420455
-0.392604
-0.351877
-0.30455
-0.258019
-0.216023
-0.179613
-0.14882
-0.121557
-0.440874
-0.418478
-0.393142
-0.355986
-0.311752
-0.267274
-0.226457
-0.190629
-0.160056
-0.132856
-0.436092
-0.414342
-0.391367
-0.357808
-0.316928
-0.274827
-0.235474
-0.200458
-0.170301
-0.143359
-0.429393
-0.408383
-0.387577
-0.357541
-0.320196
-0.280755
-0.243135
-0.209152
-0.179586
-0.153077
-0.421121
-0.400945
-0.382096
-0.355419
-0.321696
-0.285149
-0.249508
-0.216767
-0.187948
-0.162024
-0.411619
-0.392366
-0.375262
-0.351699
-0.321591
-0.288112
-0.254666
-0.223361
-0.195434
-0.170231
-0.401215
-0.382969
-0.367411
-0.346661
-0.320064
-0.289757
-0.258691
-0.229001
-0.202098
-0.177733
-0.390219
-0.373057
-0.358865
-0.340598
-0.317316
-0.29021
-0.261666
-0.233754
-0.207996
-0.184571
-0.378914
-0.3629
-0.349922
-0.333804
-0.313562
-0.289606
-0.26368
-0.237689
-0.213187
-0.190785
-0.367549
-0.352734
-0.340843
-0.326563
-0.309029
-0.288092
-0.264826
-0.240872
-0.217729
-0.196422
-0.356336
-0.342758
-0.331849
-0.319135
-0.303949
-0.285822
-0.265198
-0.24337
-0.221679
-0.20153
-0.345449
-0.333128
-0.323118
-0.311743
-0.298549
-0.282959
-0.264898
-0.245248
-0.22509
-0.206158
-0.335027
-0.323963
-0.314789
-0.304566
-0.29304
-0.279674
-0.264028
-0.246569
-0.228009
-0.210356
-0.325169
-0.315345
-0.30696
-0.297737
-0.287606
-0.276137
-0.262701
-0.247398
-0.230478
-0.214173
-0.315947
-0.307324
-0.299693
-0.29135
-0.28239
-0.272508
-0.261033
-0.247801
-0.232533
-0.21766
-0.307403
-0.299924
-0.293019
-0.285462
-0.277495
-0.268932
-0.259145
-0.24785
-0.234199
-0.220868
-0.299554
-0.293147
-0.286942
-0.280101
-0.272986
-0.265523
-0.257155
-0.247627
-0.292399
-0.286979
-0.281447
-0.275271
-0.268896
-0.262358
-0.255169
-0.247217
-0.28592
-0.281395
-0.276505
-0.270955
-0.265236
-0.259485
-0.253273
-0.280086
-0.27636
-0.272076
-0.267121
-0.261999
-0.256926
-0.274855
-0.271834
-0.268118
-0.263729
-0.259162
-0.270178
-0.26777
-0.26458
-0.260731
-0.266001
-0.264121
-0.261415
-0.258075
-0.262265
-0.260837
-0.258572
-0.258909
-0.257874
-0.255881
-0.255183
-0.253132
-0.250612
-0.142864
-0.151058
-0.158693
-0.165794
-0.172383
-0.178486
-0.184128
-0.189332
-0.194123
-0.19852
-0.20255
-0.128531
-0.136384
-0.143792
-0.15078
-0.157368
-0.163579
-0.169435
-0.174956
-0.180168
-0.1851
-0.189794
-0.115706
-0.123177
-0.1303
-0.1371
-0.143602
-0.149828
-0.155803
-0.161556
-0.167118
-0.172529
-0.177832
-0.104294
-0.111398
-0.118238
-0.124837
-0.131216
-0.137396
-0.143401
-0.149254
-0.154979
-0.160601
-0.166134
-0.0941732
-0.100917
-0.10746
-0.113819
-0.120012
-0.126055
-0.131962
-0.137748
-0.143422
-0.148995
-0.154459
-0.0851558
-0.0915343
-0.0977572
-0.103837
-0.109786
-0.115616
-0.121336
-0.126956
-0.132481
-0.137924
-0.143288
-0.077066
-0.083081
-0.088974
-0.0947547
-0.100432
-0.106017
-0.111516
-0.11694
-0.122299
-0.127607
-0.132872
-0.0697971
-0.0754546
-0.081017
-0.0864924
-0.0918884
-0.0972134
-0.102476
-0.107685
-0.112847
-0.117973
-0.123061
-0.0632555
-0.0685654
-0.0738017
-0.0789711
-0.0840798
-0.0891346
-0.0941417
-0.0991077
-0.104036
-0.108934
-0.113799
-0.0573444
-0.0623208
-0.0672399
-0.0721071
-0.0769275
-0.0817063
-0.0864485
-0.0911591
-0.0958421
-0.100504
-0.105147
-0.0519902
-0.056648
-0.0612611
-0.0658339
-0.0703705
-0.0748756
-0.0793537
-0.0838093
-0.0882466
-0.0926707
-0.0970847
-0.0471252
-0.0514813
-0.0558019
-0.0600913
-0.0643532
-0.0685916
-0.0728102
-0.0770128
-0.0812029
-0.085384
-0.0895587
-0.0426974
-0.0467681
-0.0508099
-0.0548278
-0.0588251
-0.0628047
-0.0667696
-0.0707231
-0.0746681
-0.0786077
-0.082545
-0.0386664
-0.0424657
-0.0462422
-0.0500003
-0.053743
-0.0574726
-0.0611917
-0.064903
-0.0686093
-0.0723132
-0.0760176
-0.0349857
-0.0385285
-0.0420537
-0.045565
-0.0490648
-0.052555
-0.0560379
-0.0595158
-0.062991
-0.0664657
-0.0699423
-0.0316139
-0.0349157
-0.0382044
-0.0414824
-0.0447517
-0.0480142
-0.0512716
-0.0545258
-0.0577788
-0.0610325
-0.0642888
-0.0285199
-0.0315955
-0.0346613
-0.0377192
-0.0407707
-0.043817
-0.0468599
-0.0499008
-0.0529416
-0.0559837
-0.0590288
-0.0256768
-0.0285398
-0.0313961
-0.0342466
-0.0370923
-0.0399342
-0.0427737
-0.0456122
-0.048451
-0.0512914
-0.0541347
-0.0230526
-0.0257184
-0.0283792
-0.0310354
-0.0336878
-0.0363373
-0.0389852
-0.0416323
-0.0442799
-0.0469289
-0.0495806
-0.0206224
-0.0231075
-0.0255863
-0.0280606
-0.0305319
-0.033001
-0.0354687
-0.0379357
-0.040403
-0.0428713
-0.0453418
-0.0183826
-0.0206957
-0.0230032
-0.0253069
-0.027608
-0.0299073
-0.0322053
-0.0345025
-0.0367997
-0.0390976
-0.041397
-0.0163143
-0.0184651
-0.0206119
-0.0227556
-0.0248971
-0.0270369
-0.0291754
-0.0313131
-0.0334504
-0.035588
-0.0377263
-0.039866
-0.0143935
-0.016394
-0.0183913
-0.020386
-0.0223787
-0.0243696
-0.0263592
-0.0283476
-0.0303352
-0.0323225
-0.0343099
-0.0362978
-0.0126112
-0.0144721
-0.0163303
-0.0181861
-0.0200399
-0.0218919
-0.0237422
-0.0255911
-0.0274388
-0.0292855
-0.0311316
-0.0329773
-0.0109557
-0.0126869
-0.0144157
-0.0161423
-0.0178668
-0.0195893
-0.0213099
-0.0230286
-0.0247457
-0.0264613
-0.0281756
-0.0298887
-0.00941728
-0.0110283
-0.012637
-0.0142435
-0.0158478
-0.0174499
-0.0190498
-0.0206475
-0.022243
-0.0238365
-0.0254281
-0.0270177
-0.00798793
-0.00948755
-0.0109849
-0.01248
-0.0139728
-0.0154632
-0.016951
-0.0184363
-0.0199191
-0.0213992
-0.0228768
-0.0243518
-0.0066608
-0.00805731
-0.00945162
-0.0108436
-0.0122332
-0.01362
-0.0150041
-0.0163853
-0.0177635
-0.0191386
-0.0205106
-0.0218794
-0.00543033
-0.00673159
-0.00803067
-0.00932743
-0.0106216
-0.0119128
-0.013201
-0.014486
-0.0157676
-0.0170457
-0.0183202
-0.019591
-0.00428965
-0.00550364
-0.00671536
-0.00792455
-0.00913091
-0.0103342
-0.0115341
-0.0127305
-0.0139232
-0.015112
-0.0162968
-0.0174774
-0.00323479
-0.00436948
-0.00550146
-0.0066304
-0.0077562
-0.00887871
-0.00999769
-0.0111129
-0.012224
-0.013331
-0.0144335
-0.0155314
-0.0022674
-0.00332853
-0.00438693
-0.00544225
-0.00649433
-0.00754294
-0.00858782
-0.00962869
-0.0106653
-0.0116974
-0.0127247
-0.0137472
-0.00138299
-0.00237703
-0.00336837
-0.00435664
-0.00534159
-0.00632294
-0.00730039
-0.00827365
-0.00924246
-0.0102065
-0.0111657
-0.0121196
-0.000578341
-0.00151196
-0.00244283
-0.00337058
-0.00429492
-0.00521554
-0.00613213
-0.00704439
-0.00795204
-0.0088548
-0.00975242
-0.0106447
0.000146345
-0.000733152
-0.00160983
-0.00248333
-0.00335334
-0.00421954
-0.00508162
-0.00593926
-0.00679218
-0.0076401
-0.00848276
-0.00931989
0.000791154
-4.03362e-05
-0.000868955
-0.00169435
-0.00251621
-0.0033342
-0.004148
-0.00495732
-0.00576185
-0.00656132
-0.00735546
-0.008144
0.00135527
0.000565758
-0.00022085
-0.00100421
-0.001784
-0.00255989
-0.00333159
-0.00409878
-0.00486118
-0.0056185
-0.00637047
-0.00711685
0.00183659
0.001083
0.000332331
-0.000415075
-0.00115891
-0.00189886
-0.00263463
-0.00336592
-0.00409245
-0.00481395
-0.00553014
-0.00624079
0.00223343
0.00150974
0.000788979
7.14523e-05
-0.000642541
-0.00135271
-0.00205876
-0.00276042
-0.00345741
-0.00414948
-0.00483636
-0.00551783
0.00253873
0.00183869
0.00114157
0.000447674
-0.00024273
-0.000929371
-0.00161199
-0.00229031
-0.00296411
-0.00363313
-0.00429713
-0.00495591
0.00275445
0.00207147
0.00139133
0.000714291
4.06079e-05
-0.000629471
-0.0012957
-0.00195785
-0.00261568
-0.00326897
-0.0039175
-0.00456106
0.00285846
0.00218684
0.0015181
0.000852473
0.000190126
-0.000468751
-0.00112398
-0.00177538
-0.00242277
-0.003066
-0.00370489
-0.00433929
0.145536
0.127315
0.110373
0.0937397
0.076162
0.0583064
0.0408496
0.0238701
0.00732305
-0.00874557
-0.0242861
-0.0392783
-0.0536928
-0.0671987
-0.0803882
-0.0926895
-0.104062
-0.114694
-0.124694
-0.134082
0.136258
0.118603
0.10042
0.084397
0.0684496
0.0521551
0.0362425
0.0209631
0.0061916
-0.00812479
-0.0219361
-0.035163
-0.0477049
-0.0594275
-0.0709877
-0.0820228
-0.0923844
-0.102155
-0.111423
-0.120214
0.125326
0.108822
0.0909296
0.0758787
0.0618336
0.0474909
0.0332864
0.0196646
0.00657923
-0.00608089
-0.0182985
-0.0300081
-0.041174
-0.0518268
-0.0622701
-0.0723737
-0.0819531
-0.0910176
-0.0996406
-0.107865
0.113949
0.0989362
0.0822622
0.0683991
0.0559901
0.0434064
0.0307531
0.0185437
0.00685663
-0.00443151
-0.0153624
-0.0259091
-0.0360448
-0.0457516
-0.0549244
-0.0640138
-0.072815
-0.0812084
-0.0892218
-0.0969078
0.10328
0.0898404
0.0746885
0.0620535
0.0510035
0.0399172
0.0286609
0.0177088
0.00723141
-0.00286448
-0.01265
-0.022115
-0.0312283
-0.0399792
-0.0483799
-0.0567182
-0.0648127
-0.0725727
-0.0800234
-0.087214
0.0936701
0.0816609
0.0680453
0.0566019
0.0467009
0.0368739
0.0268535
0.017028
0.0076081
-0.00145848
-0.0102518
-0.0187814
-0.0270217
-0.0349647
-0.0426387
-0.0503325
-0.0577894
-0.0649598
-0.0718857
-0.0786102
0.0850918
0.0743307
0.0621706
0.0518656
0.0429697
0.0342122
0.0252744
0.0164552
0.00796668
-0.000210671
-0.00815449
-0.0158929
-0.0234206
-0.0307327
-0.037831
-0.0446993
-0.0514992
-0.0581536
-0.0646219
-0.0709182
0.07745
0.0677877
0.0569645
0.0477235
0.0397208
0.0318799
0.0238831
0.0159561
0.00829197
0.000893126
-0.00630594
-0.0133382
-0.0202025
-0.0268884
-0.033388
-0.0396723
-0.0459329
-0.05211
-0.0581444
-0.0640331
0.0706577
0.0619745
0.0523551
0.0440848
0.0368775
0.0298292
0.0226496
0.0155102
0.00857805
0.00186776
-0.00467228
-0.0110737
-0.0173384
-0.0234578
-0.0294285
-0.0352476
-0.0410396
-0.0467602
-0.0523686
-0.0578617
0.0646312
0.0568225
0.0482733
0.0408736
0.0343732
0.0280158
0.0215482
0.0151029
0.00882103
0.00272204
-0.00323392
-0.00907539
-0.014807
-0.0204239
-0.0259257
-0.0313162
-0.0366844
-0.0419826
-0.0471875
-0.0523037
0.0592864
0.0522577
0.0446527
0.0380263
0.0321531
0.0264019
0.0205574
0.0147241
0.00901971
0.00346446
-0.00197228
-0.00731478
-0.0125681
-0.0177284
-0.0227962
-0.027781
-0.0327699
-0.0376868
-0.0425198
-0.0472832
0.054543
0.0482089
0.0414334
0.0354904
0.0301738
0.0249572
0.0196604
0.0143677
0.0091764
0.00410526
-0.000869645
-0.00576906
-0.0105986
-0.0153567
-0.020043
-0.0246617
-0.0292432
-0.0337891
-0.038285
-0.0427285
0.050328
0.044612
0.0385639
0.0332234
0.0284011
0.023658
0.0188454
0.0140319
0.00929777
0.00465972
9.86038e-05
-0.00440339
-0.00885223
-0.0132485
-0.0175905
-0.0218732
-0.0260632
-0.0302585
-0.0344429
-0.038591
0.0465768
0.0414109
0.0360001
0.0311907
0.0268081
0.0224863
0.0181036
0.0137168
0.00939221
0.00514427
0.000958073
-0.00318054
-0.00727596
-0.0113273
-0.015332
-0.0192875
-0.0231875
-0.0270868
-0.0309762
-0.034838
0.0432328
0.0385569
0.0337049
0.0293638
0.0253732
0.0214277
0.0174285
0.0134231
0.0094662
0.0055704
0.00172393
-0.00208458
-0.00585875
-0.00959809
-0.0133013
-0.0169678
-0.0205955
-0.024219
-0.027831
-0.0314209
0.0402471
0.0360081
0.0316465
0.0277191
0.0240786
0.0204704
0.0168143
0.0131506
0.00952465
0.00594696
0.00240826
-0.00110064
-0.00458272
-0.00803767
-0.0114646
-0.0148636
-0.0182347
-0.0216022
-0.024958
-0.0282955
0.0375772
0.0337282
0.029798
0.0262366
0.0229096
0.0196043
0.0162563
0.0128997
0.0095721
0.00628235
0.00302305
-0.0002132
-0.00342882
-0.00662352
-0.00979662
-0.0129485
-0.01608
-0.0192107
-0.0223294
-0.0254321
0.0351865
0.0316862
0.0281361
0.0248993
0.0218536
0.0188212
0.0157505
0.0126705
0.00961251
0.00658401
0.00357909
0.00059183
-0.00237968
-0.00533526
-0.00827457
-0.0111985
-0.0141087
-0.0170223
-0.019922
-0.0228054
0.0330434
0.0298553
0.0266411
0.0236927
0.0208999
0.0181137
0.015293
0.0124625
0.00964845
0.006857
0.00408351
0.00132343
-0.00142437
-0.00415908
-0.00687948
-0.009586
-0.0122827
-0.0149986
-0.0176982
-0.0203806
0.0311205
0.0282126
0.0252957
0.0226044
0.0200393
0.0174758
0.014881
0.0122762
0.00968305
0.0071067
0.00454325
0.00198874
-0.000558326
-0.00309808
-0.00563094
-0.00815609
-0.0106695
-0.0131457
-0.0156337
-0.0181298
0.0293943
0.0267382
0.0240855
0.0216239
0.0192644
0.0169029
0.0145129
0.012113
0.00972104
0.00734153
0.0049714
0.00260767
0.000249584
-0.00210228
-0.00444709
-0.00678363
-0.00911033
-0.011423
-0.0137411
-0.0160633
0.0278445
0.0254151
0.0229977
0.0207418
0.0185684
0.0163904
0.0141866
0.011973
0.0097646
0.00756519
0.00537244
0.00318403
0.000999477
-0.0011807
-0.00335596
-0.00552573
-0.00768934
-0.00984421
-0.012001
-0.0141589
0.026453
0.0242282
0.0220208
0.0199497
0.017945
0.0159338
0.0138994
0.0118553
0.0098143
0.00777952
0.00574914
0.0037214
0.00169597
-0.000326639
-0.00234588
-0.00436126
-0.00637225
-0.00837756
-0.0103836
-0.0123897
0.0252039
0.023164
0.0211444
0.0192396
0.0173879
0.0155286
0.0136484
0.0117588
0.00987058
0.00798636
0.00610477
0.00422448
0.00234533
0.000467828
-0.00140749
-0.00328016
-0.00514979
-0.00701563
-0.00888181
-0.0107475
0.0240833
0.0222106
0.0203594
0.0186043
0.0168916
0.0151707
0.013431
0.0116823
0.00993359
0.00818715
0.00644198
0.00469708
0.00295242
0.00120852
-0.000534099
-0.00227499
-0.0040138
-0.00574999
-0.00748634
-0.00922196
0.0230786
0.0213572
0.0196571
0.0180372
0.016451
0.0148563
0.0132446
0.0116244
0.0100032
0.00838287
0.00676281
0.00514225
0.00352126
0.00190038
0.000280115
-0.00133908
-0.00295686
-0.00457282
-0.00618886
-0.00780399
0.0221786
0.0205943
0.01903
0.0175322
0.016061
0.0145814
0.0130866
0.0115836
0.0100789
0.00857407
0.00706872
0.00556233
0.00405504
0.00254739
0.00103989
-0.000467014
-0.00197297
-0.00347764
-0.00498243
-0.00648612
0.0213733
0.0199132
0.0184711
0.0170838
0.0157172
0.0143425
0.0129542
0.0115583
0.01016
0.00876087
0.00736066
0.00595903
0.0045562
0.00315268
0.00174898
0.000345564
-0.00105723
-0.00245912
-0.00386131
-0.00526209
0.0206538
0.019306
0.017974
0.0166866
0.0154152
0.0141361
0.0128449
0.0115466
0.0102455
0.00894306
0.00763914
0.00633357
0.00502661
0.00371878
0.00241057
0.00110244
-0.000205304
-0.0015125
-0.00282064
-0.00412677
0.020012
0.0187658
0.0175329
0.0163358
0.0151509
0.0139588
0.0127559
0.0115465
0.010334
0.00911981
0.00790388
0.00668618
0.00546703
0.00424695
0.00302648
0.00180611
0.000586176
-0.000633283
-0.00185439
-0.00307334
0.0194409
0.0182864
0.0171424
0.0160269
0.0149205
0.0138073
0.0126847
0.0115559
0.010424
0.00929
0.00815406
0.0070162
0.00587672
0.00473606
0.0035947
0.00245305
0.00131174
0.000171816
-0.000962819
-0.00209855
0.0189341
0.0178621
0.016798
0.0157562
0.0147207
0.0136792
0.0126293
0.0115737
0.010515
0.00945409
0.0083912
0.00732645
0.00626018
0.00519288
0.00412506
0.00305719
0.00198981
0.000923493
-0.000140546
-0.00120434
0.0184863
0.0174882
0.0164955
0.0155197
0.0145483
0.0135714
0.0125871
0.0115976
0.0106051
0.00961025
0.00861345
0.00761485
0.00661481
0.00561379
0.00461227
0.00361068
0.00260951
0.00160925
0.00061076
-0.000386797
0.0180926
0.0171601
0.016231
0.0153142
0.0144002
0.0134812
0.0125557
0.0116255
0.0106924
0.00975696
0.00881961
0.00788056
0.00694018
0.0059989
0.00505719
0.00411548
0.00317423
0.00223389
0.0012951
0.000357551
0.0177487
0.0168742
0.0160011
0.0151366
0.0142736
0.013406
0.0125328
0.0116554
0.0107751
0.0098927
0.00900841
0.00812255
0.00723548
0.00634763
0.00545944
0.00457133
0.00368374
0.00279711
0.00191194
0.00102822
0.0174513
0.0166272
0.0158029
0.0149842
0.0141659
0.0133435
0.0125163
0.0116853
0.0108516
0.0100158
0.00917839
0.00833951
0.00749958
0.006659
0.0058182
0.00497758
0.00413756
0.00329856
0.00246104
0.0016251
0.0171977
0.0164166
0.015634
0.0148547
0.0140749
0.0132915
0.012504
0.0117131
0.0109198
0.0101246
0.00932789
0.0085299
0.00773103
0.00693167
0.00613222
0.00533307
0.00453462
0.00373727
0.00294144
0.00214731
0.0169859
0.0162404
0.0154926
0.0147461
0.0139987
0.0132482
0.0124941
0.0117371
0.010978
0.0102171
0.00945496
0.00869175
0.00792786
0.00716365
0.0063995
0.00563579
0.0048729
0.00411119
0.00335106
0.00259274
0.0168147
0.0160974
0.0153772
0.0146571
0.0139358
0.0132117
0.0124848
0.0117554
0.0110242
0.0102915
0.00955775
0.00882322
0.00808823
0.00735313
0.00661828
0.00588401
0.00515068
0.00441864
0.00368823
0.00295971
0.0166836
0.0159869
0.015287
0.0145864
0.0138845
0.0131803
0.0124739
0.0117654
0.0110555
0.0103444
0.00963253
0.00892017
0.00820761
0.00749518
0.00678321
0.00607201
0.00536191
0.00465323
0.00394632
0.00324139
0.0165937
0.0159095
0.0152223
0.0145342
0.0138451
0.0131544
0.0124619
0.011768
0.011073
0.0103772
0.00968104
0.00898466
0.00828836
0.00759241
0.00689711
0.00620274
0.00550957
0.00481788
0.00412795
0.00344004
0.0165466
0.0158659
0.0151821
0.0144975
0.0138123
0.013126
0.0124387
0.0117506
0.0110621
0.0103734
0.00968475
0.0089965
0.00830886
0.00762206
0.00693636
0.006252
0.00556922
0.00488827
0.0042094
0.00353274
0.147741
0.149243
0.152005
0.155906
0.160731
0.166431
0.172801
0.17979
0.187143
0.194783
0.20234
0.20969
0.21627
0.221925
0.225775
0.22775
0.226386
0.222012
0.211747
0.19695
0.170039
0.146682
0.14812
0.150755
0.154467
0.159037
0.164398
0.170338
0.176787
0.183474
0.1903
0.196876
0.203058
0.20827
0.212339
0.214411
0.214375
0.210918
0.204178
0.192118
0.175587
0.153497
0.14552
0.146884
0.149377
0.152876
0.157156
0.162141
0.167607
0.17347
0.179443
0.185413
0.190979
0.195986
0.199866
0.202448
0.202936
0.201223
0.196239
0.188095
0.175688
0.15975
0.140618
0.144248
0.145533
0.147871
0.151141
0.155115
0.159702
0.164672
0.169925
0.175168
0.180269
0.184831
0.188686
0.191299
0.192491
0.191582
0.18845
0.182345
0.17333
0.160973
0.145652
0.127909
0.142863
0.144062
0.146239
0.149267
0.15292
0.157095
0.161555
0.166187
0.170696
0.174934
0.178518
0.181267
0.182702
0.182631
0.180517
0.176221
0.169285
0.159719
0.147436
0.132643
0.11595
0.141361
0.142471
0.144477
0.147253
0.150573
0.154321
0.158262
0.162264
0.166042
0.169431
0.172075
0.173779
0.174135
0.172944
0.16981
0.164592
0.157047
0.147168
0.135034
0.12086
0.105249
0.139739
0.140754
0.142583
0.145096
0.148073
0.151384
0.154798
0.15817
0.161226
0.163788
0.165537
0.166269
0.16565
0.163486
0.159505
0.15358
0.145615
0.135622
0.123772
0.110308
0.0957733
0.137993
0.138911
0.140556
0.142798
0.145423
0.14829
0.151175
0.153921
0.156272
0.15804
0.158947
0.158788
0.157303
0.154311
0.149641
0.143197
0.134979
0.125035
0.113581
0.10086
0.0873461
0.136123
0.136939
0.138395
0.14036
0.142628
0.145047
0.147406
0.149537
0.151206
0.152222
0.152347
0.151386
0.149142
0.145462
0.14025
0.133449
0.125124
0.115349
0.104362
0.092381
0.0798292
0.134126
0.134838
0.136102
0.137785
0.139692
0.141666
0.143506
0.145039
0.146057
0.146369
0.145778
0.144106
0.141211
0.136972
0.131353
0.124332
0.116016
0.106497
0.0960189
0.084768
0.0731241
0.132003
0.132608
0.133677
0.135077
0.136624
0.138157
0.139491
0.140451
0.140852
0.140514
0.139277
0.136985
0.133544
0.128865
0.122958
0.11583
0.107617
0.0984166
0.0884703
0.0779331
0.0671447
0.129753
0.130252
0.131125
0.132241
0.133432
0.134534
0.135378
0.135793
0.135619
0.13469
0.132878
0.130056
0.126167
0.121155
0.115064
0.107925
0.0998854
0.091048
0.0816431
0.0717966
0.0618102
0.12738
0.127771
0.128448
0.129285
0.130126
0.130811
0.131186
0.13109
0.130385
0.128924
0.126611
0.123344
0.1191
0.113851
0.107665
0.100589
0.0927796
0.0843337
0.075469
0.0662845
0.0570461
0.124885
0.125169
0.125654
0.126216
0.126717
0.127002
0.126934
0.126364
0.125177
0.123246
0.120502
0.116871
0.112357
0.106955
0.100748
0.0937971
0.0862568
0.078219
0.0698849
0.0613295
0.0527861
0.122273
0.122453
0.122747
0.123043
0.123218
0.123124
0.122642
0.121638
0.120017
0.117677
0.114573
0.110654
0.105945
0.100461
0.094297
0.0875179
0.0802751
0.0726521
0.0648327
0.0568713
0.048972
0.119549
0.119627
0.119738
0.119778
0.119641
0.119192
0.118328
0.116932
0.11493
0.112241
0.108841
0.104704
0.099868
0.0943642
0.0882923
0.081721
0.0747934
0.0675845
0.0602599
0.0528565
0.0455525
0.116719
0.1167
0.116634
0.116432
0.116002
0.115224
0.114012
0.112267
0.109934
0.106954
0.103321
0.099027
0.0941238
0.0886518
0.0827127
0.0763752
0.0697729
0.0629714
0.0561188
0.0492377
0.042483
0.113793
0.113681
0.113447
0.113018
0.112315
0.111237
0.109712
0.107662
0.105049
0.101832
0.0980231
0.0936282
0.0887081
0.0833105
0.0775356
0.07145
0.0651764
0.0587715
0.0523668
0.0459728
0.0397243
0.110779
0.11058
0.110188
0.109548
0.108596
0.107247
0.105447
0.103135
0.100289
0.0968879
0.0929541
0.0885075
0.0836138
0.0783252
0.0727381
0.0669157
0.0609693
0.0549472
0.0489656
0.0430249
0.0372426
0.107687
0.107408
0.106871
0.106037
0.10486
0.103271
0.101233
0.0987004
0.0956685
0.0921302
0.0881183
0.0836626
0.0788315
0.0736792
0.0682971
0.0627438
0.0571194
0.0514644
0.0458807
0.0403614
0.0350082
0.104531
0.104179
0.103508
0.1025
0.101123
0.099326
0.0970849
0.0943738
0.0911986
0.0875664
0.0835176
0.0790892
0.0743504
0.0693556
0.06419
0.0589074
0.0535969
0.0482921
0.0430818
0.0379534
0.0329952
0.101323
0.100904
0.100115
0.0989527
0.0974007
0.0954264
0.0930188
0.0901671
0.0868887
0.0832014
0.0791516
0.0747812