/*--------------------------------*- C++ -*----------------------------------*\
  =========                 |
  \\      /  F ield         | OpenFOAM: The Open Source CFD Toolbox
   \\    /   O peration     | Website:  https://openfoam.org
    \\  /    A nd           | Version:  7
     \\/     M anipulation  |
\*---------------------------------------------------------------------------*/
FoamFile
{
    version     2.0;
    format      ascii;
    class       surfaceScalarField;
    location    "25";
    object      phi;
}
// * * * * * * * * * * * * * * * * * * * * * * * * * * * * * * * * * * * * * //

dimensions      [0 3 -1 0 0 0 0];

internalField   nonuniform List<scalar> 
12526
(
7.85503e-05
8.00197e-05
8.11228e-05
-7.00581e-07
8.18234e-05
0.000187018
-1.99249e-07
8.20227e-05
0.000180087
4.38984e-07
8.15837e-05
1.05539e-05
0.000169972
0.00018738
1.24243e-06
8.03413e-05
1.51968e-05
0.000156017
5.34847e-05
0.000149092
4.34916e-05
2.28935e-06
7.80519e-05
2.08446e-05
0.000137462
6.91368e-05
0.000100799
-5.12976e-05
3.62667e-06
7.44252e-05
2.76629e-05
0.000113426
8.75519e-05
4.09105e-05
0.000202378
-0.000166123
-0.000536787
5.29757e-06
6.91277e-05
3.57842e-05
8.29393e-05
0.000108938
-3.22437e-05
0.00024603
-0.000303215
0.000470953
-0.00076171
-0.00143426
7.33571e-06
6.1792e-05
4.52953e-05
4.49797e-05
0.00013337
-0.000120318
0.000294639
-0.000464484
0.000552696
-0.00101977
0.000921759
-0.00180332
-0.0027888
9.76328e-06
5.20287e-05
5.62293e-05
-1.48637e-06
0.000160758
-0.000224847
0.000347556
-0.000651282
0.000637916
-0.00131013
0.00103653
-0.00220194
0.00151748
-0.00326974
-0.00441051
1.25904e-05
3.94383e-05
6.856e-05
-5.74559e-05
0.000190838
-0.000347125
0.000403703
-0.000864147
0.00072361
-0.00163004
0.00114268
-0.00262101
0.00162018
-0.00374725
0.00209708
-0.00488741
-0.00593294
1.5815e-05
2.36233e-05
8.2198e-05
-0.000123839
0.000223154
-0.000488081
0.000461572
-0.00110256
0.000806238
-0.0019747
0.00123495
-0.00304972
0.00169567
-0.00420797
0.0021313
-0.00532304
0.00250829
-0.00630993
-0.00717124
1.94222e-05
4.2011e-06
9.69877e-05
-0.000201404
0.000257058
-0.000648151
0.000519282
-0.00136479
0.000882091
-0.00233751
0.00130913
-0.00347675
0.00174233
-0.00464117
0.00213184
-0.00571255
0.00245693
-0.00663501
-0.00743612
0.00272181
2.33832e-05
-1.91821e-05
0.000112705
-0.000290726
0.000291712
-0.000827158
0.000574688
-0.00164776
0.000947725
-0.00271055
0.00136254
-0.00389157
0.00176072
-0.00503935
0.00210281
-0.00605464
0.00238004
-0.00691224
-0.00765957
0.00260349
2.7655e-05
-4.68371e-05
0.000129054
-0.000392125
0.000326116
-0.00102422
0.000625557
-0.00194721
0.00100036
-0.00308535
0.00139412
-0.00428533
0.0017529
-0.00539813
0.00204887
-0.00635061
0.00228329
-0.00714667
-0.00784803
0.00247175
3.21775e-05
-7.90146e-05
0.000145673
-0.00050562
0.000359147
-0.00123769
0.000669786
-0.00225784
0.00103814
-0.0034537
0.00140421
-0.00465141
0.00172189
-0.00571581
0.00197466
-0.00660339
0.00217152
-0.00734353
-0.00800691
0.00233041
3.68741e-05
-0.000115889
0.00016214
-0.000630887
0.000389636
-0.00146519
0.000705599
-0.00257381
0.0010602
-0.0038083
0.0013942
-0.00498541
0.0016711
-0.00599271
0.00188446
-0.00681674
0.00204867
-0.00750774
-0.00814056
0.00218232
4.16523e-05
-0.000157541
0.000177991
-0.000767225
0.000416448
-0.00170365
0.000731711
-0.00288907
0.00106659
-0.00414318
0.00136614
-0.00528495
0.00160396
-0.00623053
0.00178195
-0.00699473
0.00191786
-0.00764365
-0.00825231
0.00202961
4.64051e-05
-0.000203946
0.000192737
-0.000913557
0.000438577
-0.00194949
0.000747393
-0.00319789
0.00105807
-0.00445386
0.00132242
-0.00554929
0.00152369
-0.00643181
0.00167026
-0.00714129
0.00178149
-0.00775488
-0.00834465
0.00187383
5.10154e-05
-0.000254962
0.000205897
-0.00106844
0.000455223
-0.00219881
0.000752461
-0.00349512
0.00103592
-0.00473732
0.00126551
-0.00577888
0.00143316
-0.00659946
0.00155191
-0.00726004
0.0016414
-0.00784436
-0.0084194
0.00171614
5.536e-05
-0.000310322
0.000217024
-0.0012301
0.000465841
-0.00244763
0.0007472
-0.00377648
0.00100168
-0.0049918
0.0011978
-0.005975
0.00133483
-0.00673649
0.00142891
-0.00735412
0.00149896
-0.0079144
-0.0084778
0.00155736
5.93158e-05
-0.000369637
0.000225733
-0.00139652
0.000470163
-0.00269206
0.000732257
-0.00403858
0.000957046
-0.00521659
0.00112148
-0.00613944
0.00123079
-0.00684581
0.00130286
-0.00742619
0.0013552
-0.00796675
-0.00852076
0.00139816
6.2765e-05
-0.000432402
0.000231724
-0.00156548
0.000468183
-0.00292852
0.000708527
-0.00427892
0.000903703
-0.00541176
0.0010385
-0.00627424
0.00112275
-0.00693005
0.00117496
-0.00747839
0.00121091
-0.00800271
-0.00854889
0.00123904
6.56011e-05
-0.000498003
0.000234799
-0.00173468
0.000460119
-0.00315384
0.000677043
-0.00449584
0.000843259
-0.00557798
0.000950546
-0.00638152
0.00101207
-0.00699158
0.00104616
-0.00751248
0.00106666
-0.00802321
-0.0085626
0.00108037
6.77328e-05
-0.000565736
0.00023486
-0.0019018
0.000446369
-0.00336535
0.000638897
-0.00468837
0.000777192
-0.00571628
0.000859048
-0.00646338
0.000899874
-0.00703241
0.000917191
-0.0075298
0.00092291
-0.00802893
-0.00856213
0.000922442
6.90886e-05
-0.000634825
0.000231912
-0.00206463
0.000427451
-0.00356089
0.000595175
-0.0048561
0.000706823
-0.00582792
0.0007652
-0.00652176
0.000787031
-0.00705424
0.000788619
-0.00753139
0.000780019
-0.00802033
-0.00854761
0.000765503
6.9618e-05
-0.000704443
0.000226051
-0.00222106
0.00040396
-0.0037388
0.000546916
-0.00499905
0.000633309
-0.00591432
0.00066999
-0.00655844
0.000674232
-0.00705848
0.000660874
-0.00751803
0.000638275
-0.00799773
-0.00851907
0.000609728
6.92926e-05
-0.000773736
0.000217441
-0.00236921
0.000376524
-0.00389788
0.00049508
-0.00511761
0.000557649
-0.00597688
0.000574226
-0.00657501
0.000562025
-0.00704628
0.000534292
-0.00749029
0.000497913
-0.00796135
-0.00847641
0.000455259
6.81059e-05
-0.000841841
0.000206306
-0.00250741
0.00034577
-0.00403734
0.000440536
-0.00521238
0.000480691
-0.00601704
0.000478575
-0.0065729
0.000450874
-0.00701858
0.000409178
-0.0074486
0.000359074
-0.00791124
-0.00841958
0.000302244
6.60712e-05
-0.000907913
0.000192903
-0.00263424
0.000312303
-0.00415674
0.000384056
-0.00528413
0.000403151
-0.00603614
0.000383581
-0.00655333
0.000341187
-0.00697618
0.000285928
-0.00739334
0.000221801
-0.00784712
-0.00834836
0.000150573
6.32216e-05
-0.000971134
0.000177516
-0.00274853
0.000276694
-0.00425592
0.000326313
-0.00533375
0.000325621
-0.00603544
0.00028967
-0.00651738
0.000233277
-0.00691979
0.000164963
-0.00732503
8.70194e-05
-0.00776917
-0.00825645
-4.88914e-06
5.96086e-05
-0.00103074
0.000160458
-0.00284938
0.00023947
-0.00433493
0.000267891
-0.00536217
0.000248589
-0.00601614
0.000197181
-0.00646597
0.000127327
-0.00684994
4.58815e-05
-0.00724358
-4.39498e-05
-0.00767934
-0.00815596
-0.000144438
5.52967e-05
-0.00108604
0.00014202
-0.00293611
0.000201109
-0.00439402
0.000209291
-0.00537035
0.000172455
-0.00597931
0.000106391
-0.0063999
2.32644e-05
-0.00676681
-7.03494e-05
-0.00714997
-0.000174349
-0.00757534
-0.00804399
-0.000286314
5.03607e-05
-0.0011364
0.000122484
-0.00300823
0.000162045
-0.00443358
0.000150933
-0.00535924
9.75372e-05
-0.00592591
1.73961e-05
-0.00631976
-7.78386e-05
-0.00667157
-0.000183948
-0.00704386
-0.000300847
-0.00745844
-0.00791876
-0.000426083
4.48849e-05
-0.00118129
0.000102121
-0.00306547
0.000122657
-0.00445412
9.31659e-05
-0.00532975
2.41403e-05
-0.00585688
-6.91092e-05
-0.00622651
-0.000176631
-0.00656405
-0.000295
-0.00692549
-0.000424343
-0.0073291
-0.00778024
-0.000562859
3.89591e-05
-0.00122024
8.12073e-05
-0.00310771
8.32621e-05
-0.00445618
3.63753e-05
-0.00528286
-4.75134e-05
-0.005773
-0.000153505
-0.00612052
-0.000272931
-0.00644463
-0.000403206
-0.00679521
-0.000544844
-0.00718746
-0.00762873
-0.000696351
3.26675e-05
-0.00125291
6.00188e-05
-0.00313507
4.41968e-05
-0.00444035
-1.92533e-05
-0.00521941
-0.000117298
-0.00567495
-0.000235599
-0.00600222
-0.000366585
-0.00631364
-0.00050848
-0.00665332
-0.000662209
-0.00703373
-0.00746474
-0.000826203
2.61038e-05
-0.00127902
3.87393e-05
-0.0031477
6.77512e-06
-0.00440839
-7.36603e-05
-0.00513897
-0.000185171
-0.00556344
-0.000315278
-0.00587211
-0.000457509
-0.00617141
-0.00061076
-0.00650007
-0.00077629
-0.0068682
-0.00728898
-0.000952047
1.94649e-05
-0.00129848
1.75824e-05
-0.00314582
-3.24684e-05
-0.00435834
-0.000126749
-0.00504469
-0.000250957
-0.00543923
-0.000392454
-0.00573062
-0.00054563
-0.00601824
-0.00070998
-0.00633572
-0.000886977
-0.0066912
-0.00710199
-0.00107397
1.26769e-05
-0.00131116
-1.73144e-06
-0.00313141
-6.97004e-05
-0.00429037
-0.000178339
-0.00493606
-0.000314593
-0.00530298
-0.000467063
-0.00557815
-0.000630915
-0.00585438
-0.00080611
-0.00616052
-0.000994313
-0.006503
-0.00690355
-0.00119275
5.27259e-06
-0.00131643
-2.52729e-05
-0.00310086
-0.000106121
-0.00420952
-0.000228164
-0.00481401
-0.000375986
-0.00515516
-0.000539069
-0.00541506
-0.000713417
-0.00568004
-0.000899306
-0.00597463
-0.00109825
-0.00630406
-0.0066938
-0.001308
-2.27258e-06
-0.00131416
-4.64226e-05
-0.00305671
-0.000141439
-0.00411451
-0.00027613
-0.00467932
-0.000435015
-0.00499627
-0.000608404
-0.00524167
-0.000793203
-0.00549524
-0.000989974
-0.00577786
-0.00119848
-0.00609555
-0.00647454
-0.00141774
-9.19236e-06
-0.00130496
-6.67533e-05
-0.00299915
-0.000175484
-0.00400577
-0.000322181
-0.00453263
-0.000491593
-0.00482686
-0.000674932
-0.00505833
-0.000870016
-0.00530015
-0.00107794
-0.00556994
-0.00129932
-0.00587418
-0.0062568
-0.00151706
-1.62252e-05
-0.00128874
-8.64056e-05
-0.00292897
-0.000208173
-0.00388401
-0.00036624
-0.00437456
-0.000545651
-0.00464745
-0.000738512
-0.00486547
-0.000943257
-0.00509541
-0.00116013
-0.00535306
-0.00138659
-0.00564772
-0.00598608
-0.00165731
-2.31405e-05
-0.0012656
-0.000105367
-0.00284675
-0.000239445
-0.00374993
-0.000408251
-0.00420575
-0.000597158
-0.00445854
-0.000799074
-0.00466356
-0.00101258
-0.0048819
-0.00123736
-0.00512828
-0.00147532
-0.00540976
-0.00571809
-0.00174331
-2.98733e-05
-0.00123573
-0.000123585
-0.00275303
-0.000269252
-0.00360426
-0.000448173
-0.00402683
-0.000646078
-0.00426064
-0.000856619
-0.00445302
-0.00107872
-0.0046598
-0.00131285
-0.00489415
-0.00156236
-0.00516026
-0.00544784
-0.0018326
-3.63839e-05
-0.00119934
-0.000141003
-0.00264842
-0.000297551
-0.00344771
-0.000485968
-0.00383841
-0.000692363
-0.00405424
-0.000911053
-0.00423433
-0.0011413
-0.00442955
-0.00138406
-0.00465139
-0.0016423
-0.00490202
-0.00517223
-0.00191792
-4.26405e-05
-0.0011567
-0.00015757
-0.00253349
-0.000324305
-0.00328098
-0.00052161
-0.00364111
-0.000735997
-0.00383985
-0.000962404
-0.00400792
-0.00120045
-0.0041915
-0.0014514
-0.00440045
-0.00171759
-0.00463582
-0.00489004
-0.00199978
-4.8615e-05
-0.00110809
-0.000173243
-0.00240886
-0.000349482
-0.00310474
-0.000555079
-0.00343551
-0.000776958
-0.00361797
-0.00101064
-0.00377424
-0.00125607
-0.00394607
-0.00151461
-0.00414191
-0.00178823
-0.00436219
-0.00460078
-0.00207749
-5.42828e-05
-0.0010538
-0.000187986
-0.00227516
-0.000373056
-0.00291967
-0.000586358
-0.00322221
-0.000815236
-0.0033891
-0.00105575
-0.00353373
-0.0013081
-0.00369372
-0.00157374
-0.00387627
-0.00185443
-0.00408151
-0.00430443
-0.00215078
-5.96222e-05
-0.000994182
-0.00020177
-0.00213301
-0.000395007
-0.00272643
-0.000615436
-0.00300178
-0.000850819
-0.00315371
-0.0010977
-0.00328685
-0.00135653
-0.00343488
-0.00162879
-0.00360401
-0.00191616
-0.00379414
-0.0040012
-0.0022194
-6.46142e-05
-0.000929567
-0.00021457
-0.00198305
-0.000415318
-0.00252568
-0.000642305
-0.00277479
-0.000883699
-0.00291232
-0.00113649
-0.00303406
-0.00140132
-0.00317005
-0.00167974
-0.00332559
-0.00197339
-0.00350049
-0.00369142
-0.00228317
-6.92426e-05
-0.000860325
-0.000226366
-0.00182593
-0.000433977
-0.00231807
-0.000666961
-0.00254181
-0.000913869
-0.00266541
-0.00117209
-0.00277583
-0.00144246
-0.00289969
-0.00172655
-0.00304151
-0.00202603
-0.00320101
-0.00337552
-0.00234193
-7.34934e-05
-0.000786831
-0.000237142
-0.00166228
-0.000450977
-0.00210424
-0.000689399
-0.00230339
-0.000941326
-0.00241349
-0.0012045
-0.00251265
-0.00147991
-0.00262428
-0.00176919
-0.00275223
-0.00207403
-0.00289616
-0.00305398
-0.00239557
-7.73548e-05
-0.000709477
-0.000246886
-0.00149275
-0.00046631
-0.00188481
-0.000709621
-0.00206008
-0.000966069
-0.00215704
-0.00123371
-0.00224501
-0.00151367
-0.00234433
-0.00180763
-0.00245827
-0.00211731
-0.00258648
-0.00272733
-0.00244397
-8.08167e-05
-0.00062866
-0.000255586
-0.00131798
-0.000479974
-0.00166043
-0.000727628
-0.00181242
-0.0009881
-0.00189657
-0.00125972
-0.00197339
-0.00154372
-0.00206033
-0.00184184
-0.00216015
-0.00215583
-0.00227248
-0.00239611
-0.00248705
-8.38709e-05
-0.000544789
-0.000263235
-0.00113862
-0.000491967
-0.00143169
-0.000743424
-0.00156097
-0.00100742
-0.00163256
-0.00128253
-0.00169828
-0.00157006
-0.00177281
-0.00187181
-0.0018584
-0.00218956
-0.00195473
-0.00206092
-0.00252475
-8.651e-05
-0.000458279
-0.000269825
-0.000955302
-0.000502287
-0.00119923
-0.000757012
-0.00130624
-0.00102405
-0.00136552
-0.00130215
-0.00142018
-0.0015927
-0.00148226
-0.00189754
-0.00155357
-0.00221846
-0.0016338
-0.00172237
-0.00255702
-8.87278e-05
-0.000369551
-0.00027535
-0.000768679
-0.000510933
-0.000963648
-0.000768397
-0.00104878
-0.00103799
-0.00109593
-0.0013186
-0.00113956
-0.00161168
-0.00118918
-0.00191906
-0.00124619
-0.00224258
-0.00131029
-0.00138109
-0.00258386
-9.05186e-05
-0.000279032
-0.000279805
-0.000579393
-0.0005179
-0.000725552
-0.000777578
-0.000789101
-0.00104924
-0.000824271
-0.0013319
-0.000856903
-0.00162702
-0.000894067
-0.00193643
-0.000936771
-0.00226196
-0.000984757
-0.00103774
-0.00260531
-9.18771e-05
-0.000187155
-0.00028318
-0.00038809
-0.000523183
-0.00048555
-0.00078455
-0.000527734
-0.00105781
-0.000551014
-0.00134205
-0.000572656
-0.00163876
-0.000597361
-0.00194974
-0.000625787
-0.00227677
-0.000657734
-0.000692967
-0.00262154
-9.27984e-05
-9.43568e-05
-0.000285469
-0.000195419
-0.00052677
-0.000244249
-0.000789301
-0.000265204
-0.00106367
-0.000276641
-0.00134905
-0.000287276
-0.00164693
-0.000299489
-0.00195909
-0.000313622
-0.00228722
-0.000329602
-0.000347224
-0.00263297
-9.32779e-05
-1.07893e-06
-0.000286663
-2.03372e-06
-0.00052865
-2.2621e-06
-0.000791809
-2.04519e-06
-0.0010668
-1.64509e-06
-0.00135285
-1.23354e-06
-0.00165145
-8.85153e-07
-0.00196444
-6.28985e-07
-0.00229356
-4.83447e-07
-4.82886e-07
-0.0026403
-9.33119e-05
9.2233e-05
-0.000286754
0.000191408
-0.000528808
0.000239792
-0.000792047
0.000261194
-0.00106715
0.000273457
-0.00135334
0.000284956
-0.00165215
0.000297931
-0.00196548
0.000312692
-0.00229512
0.000329165
0.000347289
-0.0026429
-9.28978e-05
0.000185131
-0.000285734
0.000384244
-0.000527229
0.000481287
-0.000789991
0.000523957
-0.00106466
0.000548126
-0.00135043
0.000570726
-0.00164883
0.000596326
-0.0019617
0.000625567
-0.00229082
0.000658284
0.00069428
-0.00263781
-9.20347e-05
0.000277166
-0.000283599
0.000575808
-0.000523906
0.000721594
-0.000785627
0.000785678
-0.00105932
0.000821817
-0.0013441
0.00085551
-0.00164146
0.000893683
-0.00195321
0.000937315
-0.00228107
0.000986144
0.00103984
-0.00262663
-9.07236e-05
0.000367889
-0.00028035
0.000765434
-0.000518836
0.00096008
-0.000778952
0.00104579
-0.00105112
0.00109399
-0.00133437
0.00113875
-0.00163012
0.00118943
-0.00194016
0.00124736
-0.00226622
0.00131221
0.0013835
-0.00260989
-8.89672e-05
0.000456856
-0.000275989
0.000952456
-0.000512021
0.00119611
-0.000769971
0.00130374
-0.00104009
0.00136411
-0.00132126
0.00141993
-0.00161487
0.00148304
-0.00192268
0.00155517
-0.00224643
0.00163596
0.00172476
-0.00258769
-8.67704e-05
0.000543627
-0.000270522
0.00113621
-0.000503468
0.00142906
-0.000758693
0.00155897
-0.00102624
0.00163166
-0.00130483
0.00169851
-0.00159577
0.00177398
-0.00190083
0.00186023
-0.00222177
0.00195689
0.0020631
-0.00256011
-8.41393e-05
0.000627766
-0.000263957
0.00131602
-0.000493184
0.00165829
-0.00074513
0.00181091
-0.00100959
0.00189612
-0.00128509
0.00197401
-0.00157288
0.00206177
-0.00187469
0.00216205
-0.00219231
0.00227451
0.00239798
-0.00252719
-8.10819e-05
0.000708848
-0.000256305
0.00149125
-0.000481181
0.00188316
-0.000729295
0.00205903
-0.000990168
0.00215699
-0.00126209
0.00224593
-0.00154622
0.0023459
-0.00184429
0.00246012
-0.00215807
0.00258829
0.00272887
-0.00248896
-7.76075e-05
0.000786455
-0.000247578
0.00166122
-0.00046747
0.00210305
-0.000711201
0.00230276
-0.000967985
0.00241378
-0.00123584
0.00251378
-0.00151584
0.0026259
-0.00180968
0.00275396
-0.00211912
0.00289773
0.00305522
-0.00244546
-7.37266e-05
0.000860182
-0.000237791
0.00182528
-0.000452061
0.00231732
-0.00069086
0.00254156
-0.00094306
0.00266598
-0.00120637
0.0027771
-0.00148176
0.00290129
-0.00177088
0.00304308
-0.00207547
0.00320232
0.00337649
-0.00239674
-6.94515e-05
0.000929634
-0.000226957
0.00198279
-0.000434968
0.00252533
-0.000668281
0.00277487
-0.000915407
0.0029131
-0.00117371
0.0030354
-0.00144401
0.00317159
-0.00172792
0.00332699
-0.00202718
0.00350157
0.00369218
-0.00234287
-6.47961e-05
0.00099443
-0.000215096
0.00213309
-0.000416204
0.00272644
-0.000643476
0.00300214
-0.000885038
0.00315466
-0.00113786
0.00328822
-0.00140261
0.00343633
-0.00168084
0.00360523
-0.0019743
0.00379503
0.00400181
-0.00228393
-5.97758e-05
0.00105421
-0.000202227
0.00227554
-0.000395783
0.00292
-0.000616455
0.00322282
-0.000851965
0.00339017
-0.00109885
0.00353511
-0.00135758
0.00369506
-0.00162967
0.00387732
-0.00191688
0.00408224
0.00430496
-0.00222003
-5.44084e-05
0.00110861
-0.000188374
0.00240951
-0.000373723
0.00310535
-0.00058723
0.00343632
-0.000816202
0.00361915
-0.00105669
0.0037756
-0.00130894
0.00394731
-0.00157443
0.00414281
-0.001855
0.00436281
0.00460129
-0.00215133
-4.87139e-05
0.00115733
-0.000173564
0.00253436
-0.000350043
0.00328182
-0.000555811
0.00364209
-0.000777758
0.00384109
-0.0010114
0.00400925
-0.00125673
0.00419263
-0.00151514
0.00440122
-0.00178867
0.00463634
0.00489059
-0.00207798
-4.27146e-05
0.00120004
-0.000157828
0.00264947
-0.000324766
0.00344876
-0.000522213
0.00383954
-0.000736646
0.00405552
-0.00096301
0.00423561
-0.00120096
0.00443058
-0.00145179
0.00465205
-0.00171791
0.00490247
0.0051729
-0.00200022
-3.64357e-05
0.00123648
-0.000141203
0.00275424
-0.00029792
0.00360548
-0.000486454
0.00402807
-0.000692879
0.00426195
-0.000911521
0.00445425
-0.00114168
0.00466074
-0.00138435
0.00489473
-0.00164252
0.00516064
0.00544868
-0.0019183
-2.99053e-05
0.00126638
-0.000123733
0.00284806
-0.000269538
0.00375129
-0.000448554
0.00420709
-0.000646478
0.00445987
-0.000856968
0.00466474
-0.00107898
0.00488275
-0.00131303
0.00512878
-0.00156245
0.00541005
0.00571909
-0.00183286
-2.31555e-05
0.00128954
-0.000105468
0.00293038
-0.000239658
0.00388548
-0.000408541
0.00437597
-0.000597458
0.00464879
-0.000799325
0.00486661
-0.00101276
0.00509619
-0.0012375
0.00535351
-0.00147546
0.00564801
0.00598705
-0.00174341
-1.62257e-05
0.00130576
-8.64667e-05
0.00300062
-0.000208321
0.00400733
-0.00036645
0.0045341
-0.000545867
0.00482821
-0.000738682
0.00505942
-0.000943349
0.00530085
-0.00116014
0.0055703
-0.00138654
0.00587442
0.00625703
-0.00165652
-9.18092e-06
0.00131495
-6.67804e-05
0.00305822
-0.000175577
0.00411613
-0.000322323
0.00468085
-0.000491739
0.00499762
-0.000675041
0.00524273
-0.000870063
0.00549588
-0.00107793
0.00577817
-0.00129933
0.00609582
0.0064752
-0.0015175
-2.25273e-06
0.0013172
-4.64213e-05
0.00310239
-0.000141484
0.00421119
-0.000276215
0.00481558
-0.000435105
0.00515651
-0.00060847
0.00541609
-0.000793242
0.00568065
-0.000990022
0.00597495
-0.00119865
0.00630445
0.00669455
-0.00141801
5.30389e-06
0.00131189
-2.52472e-05
0.00313294
-0.000106124
0.00429207
-0.000228201
0.00493765
-0.000376031
0.00530434
-0.000539104
0.00557916
-0.000713454
0.005855
-0.000899392
0.00616088
-0.00109844
0.0065035
0.00690433
-0.00130822
1.27143e-05
0.00129918
-1.65474e-06
0.00314731
-6.96674e-05
0.00436008
-0.000178336
0.00504632
-0.0003146
0.00544061
-0.000467072
0.00573164
-0.000630944
0.00601887
-0.000806198
0.00633614
-0.000994493
0.00669179
0.0071028
-0.00119296
1.95031e-05
0.00127968
1.7641e-05
0.00314917
-3.24093e-05
0.00441013
-0.000126712
0.00514063
-0.000250932
0.00556483
-0.000392439
0.00587314
-0.000545644
0.00617207
-0.000710056
0.00650055
-0.000887121
0.00686886
0.0072898
-0.00107412
2.61443e-05
0.00125353
3.88151e-05
0.0031365
6.84982e-06
0.00444209
-7.35949e-05
0.00522107
-0.000185119
0.00567635
-0.000315242
0.00600327
-0.000457506
0.00631434
-0.000610817
0.00665386
-0.000776395
0.00703444
0.00746552
-0.000952117
3.27109e-05
0.00122082
6.01076e-05
0.0031091
4.42997e-05
0.0044579
-1.916e-05
0.00528453
-0.000117221
0.00577441
-0.000235543
0.00612159
-0.000366565
0.00644536
-0.000508513
0.00679581
-0.000662273
0.0071882
0.00762946
-0.000826211
3.90046e-05
0.00118182
8.13064e-05
0.0030668
8.33839e-05
0.00445583
3.64911e-05
0.00533142
-4.74133e-05
0.00585832
-0.000153428
0.0062276
-0.000272891
0.00656482
-0.000403213
0.00692613
-0.000544867
0.00732985
0.00778091
-0.000696314
4.49315e-05
0.00113689
0.000102228
0.0030095
0.000122796
0.00443526
9.33041e-05
0.00536091
2.42626e-05
0.00592736
-6.90125e-05
0.00632088
-0.000176571
0.00667238
-0.000294979
0.00704454
-0.000424329
0.0074592
0.00791937
-0.000562789
5.04077e-05
0.00108648
0.000122598
0.00293731
0.000162198
0.00439566
0.000151091
0.00537202
9.7681e-05
0.00598077
1.7514e-05
0.00640105
-7.77575e-05
0.00676765
-0.0001839
0.00715068
-0.0003008
0.0075761
0.00804455
-0.000425987
5.53437e-05
0.00103113
0.00014214
0.00285052
0.000201276
0.00433652
0.000209469
0.00536383
0.00017262
0.00601762
0.000106529
0.00646714
2.33682e-05
0.00685081
-7.02759e-05
0.00724433
-0.000174273
0.0076801
0.00815648
-0.000286198
5.96552e-05
0.000971479
0.000160582
0.00274959
0.000239649
0.00425745
0.000268087
0.00533539
0.000248775
0.00603693
0.00019734
0.00651857
0.000127452
0.0069207
4.59813e-05
0.0073258
-4.38449e-05
0.00776992
0.00825694
-0.000144308
6.32672e-05
0.000908212
0.000177643
0.00263521
0.000276885
0.00415821
0.000326527
0.00528575
0.000325827
0.00603763
0.00028985
0.00655455
0.000233424
0.00697713
0.000165087
0.00739413
8.71413e-05
0.00784787
0.00834885
-4.77215e-06
6.61155e-05
0.000842096
0.000193033
0.0025083
0.000312504
0.00403874
0.000384287
0.00521397
0.000403379
0.00601854
0.000383783
0.00657414
0.000341357
0.00701955
0.000286075
0.00744942
0.000221947
0.007912
0.00842007
0.000150732
6.81485e-05
0.000773948
0.000206437
0.00237001
0.000345979
0.0038992
0.000440784
0.00511916
0.00048094
0.00597838
0.0004788
0.00657628
0.000451068
0.00704729
0.000409349
0.00749113
0.000359242
0.0079621
0.0084769
0.00030241
6.93332e-05
0.000704615
0.000217572
0.00222177
0.000376741
0.00374003
0.000495344
0.00500056
0.000557919
0.00591581
0.000574475
0.00655973
0.000562243
0.00705952
0.000534487
0.00751889
0.000498101
0.00799849
0.00851957
0.000455436
6.9656e-05
0.000634959
0.00022618
0.00206525
0.000404183
0.00356203
0.000547195
0.00485755
0.000633601
0.0058294
0.000670263
0.00652307
0.000674475
0.00705531
0.000661094
0.00753227
0.000638484
0.0080211
0.00854813
0.000609918
6.9124e-05
0.000565835
0.000232038
0.00190233
0.000427677
0.00336639
0.000595468
0.00468975
0.000707137
0.00571774
0.000765499
0.0064647
0.000787301
0.0070335
0.000788864
0.00753071
0.000780249
0.00802972
0.00856267
0.000765709
6.77652e-05
0.00049807
0.000234981
0.00173511
0.000446597
0.00315477
0.000639202
0.00449715
0.000777527
0.00557941
0.000859373
0.00638286
0.000900172
0.00699271
0.000917463
0.00751342
0.000923163
0.00802401
0.00856317
0.000922666
6.56303e-05
0.000432439
0.000234914
0.00156583
0.000460347
0.00292934
0.000677358
0.00428014
0.000843614
0.00541315
0.000950899
0.00627557
0.0010124
0.00693121
0.00104646
0.00747936
0.00106694
0.00800353
0.0085495
0.00108061
6.27909e-05
0.000369648
0.000231832
0.00139679
0.000468406
0.00269276
0.000708849
0.00403969
0.000904077
0.00521793
0.00103888
0.00614077
0.0011231
0.00684698
0.00117529
0.00742718
0.00121122
0.0079676
0.00852141
0.00123931
5.93383e-05
0.00031031
0.000225832
0.0012303
0.000470379
0.00244822
0.000732583
0.00377749
0.000957437
0.00499307
0.00112189
0.00597632
0.00123118
0.00673769
0.00130322
0.00735514
0.00135554
0.00791528
0.00847849
0.00139846
5.53791e-05
0.000254931
0.000217114
0.00106856
0.000466047
0.00219928
0.000747525
0.00349601
0.00100209
0.00473851
0.00119823
0.00578017
0.00133526
0.00660066
0.00142931
0.00726109
0.00149933
0.00784526
0.00842012
0.0015577
5.10311e-05
0.0002039
0.000205976
0.000913616
0.000455415
0.00194985
0.00075278
0.00319865
0.00103633
0.00445496
0.00126597
0.00555054
0.00143361
0.00643302
0.00155234
0.00714236
0.0016418
0.0077558
0.00834542
0.0017165
4.64177e-05
0.000157482
0.000192805
0.000767229
0.000438752
0.0017039
0.000747701
0.0028897
0.00105849
0.00414416
0.00132289
0.00528613
0.00152418
0.00623173
0.00167073
0.00699581
0.00178193
0.0076446
0.00825311
0.00187424
4.16619e-05
0.00011582
0.000178048
0.000630843
0.000416603
0.00146534
0.000732002
0.0025743
0.001067
0.00380916
0.00136663
0.00498651
0.00160449
0.00599387
0.00178246
0.00681783
0.00191835
0.00750872
0.00814139
0.00203006
3.6881e-05
7.89393e-05
0.000162186
0.000505538
0.00038977
0.00123776
0.000705866
0.00225821
0.0010606
0.00345442
0.0013947
0.00465241
0.00167165
0.00571693
0.00188501
0.00660448
0.00204921
0.00734452
0.00800778
0.00218282
3.21819e-05
4.67574e-05
0.000145708
0.000392012
0.000359259
0.00102421
0.000670024
0.00194744
0.00103852
0.00308593
0.00140472
0.00428621
0.00172246
0.00539918
0.00197525
0.00635169
0.00217211
0.00714767
0.00784892
0.00233096
2.76573e-05
1.91001e-05
0.00012908
0.000290589
0.000326205
0.000827082
0.000625763
0.00164788
0.00100071
0.00271097
0.00139461
0.00389231
0.00175348
0.00504031
0.00204949
0.00605568
0.00228392
0.00691324
0.00766048
0.00247236
2.33837e-05
-4.2836e-06
0.000112721
0.000201252
0.00029178
0.000648023
0.000574857
0.00136481
0.00094804
0.00233779
0.00136301
0.00347735
0.0017613
0.00464202
0.00210346
0.00571352
0.00238071
0.00663598
0.00743704
0.00260415
1.9421e-05
-2.37046e-05
9.69964e-05
0.000123676
0.000257105
0.000487915
0.000519414
0.0011025
0.00088236
0.00197485
0.00130956
0.00305015
0.00174291
0.00420867
0.00213251
0.00532392
0.00245764
0.00631086
0.00717215
0.00272253
1.58123e-05
-3.95169e-05
8.21991e-05
5.72894e-05
0.000223182
0.000346933
0.000461668
0.000864011
0.000806456
0.00163006
0.00123533
0.00262128
0.00169621
0.00374779
0.00213197
0.00488816
0.00250904
1.25862e-05
-5.21031e-05
6.8554e-05
1.32156e-06
0.000190847
0.00022464
0.000403762
0.000651095
0.000723773
0.00131005
0.001143
0.00220205
0.00162068
0.00327011
0.00441111
9.7575e-06
-6.18606e-05
5.62165e-05
-4.51374e-05
0.00016075
0.000120106
0.000347582
0.000464264
0.000638024
0.0010196
0.00103677
0.0018033
0.0015179
0.00278898
7.32826e-06
-6.91888e-05
4.52758e-05
-8.3085e-05
0.000133345
3.20365e-05
0.000294632
0.000302976
0.00055275
0.000761487
0.00092193
0.00143412
5.28835e-06
-7.44772e-05
3.57582e-05
-0.000113555
0.000108899
-4.11042e-05
0.000245995
0.000165881
0.000470957
0.000536524
3.6157e-06
-7.80929e-05
2.76307e-05
-0.00013757
8.74988e-05
-0.000100972
0.000202316
5.10631e-05
2.27679e-06
-8.03697e-05
2.08072e-05
-0.0001561
6.90724e-05
-0.000149238
-4.37078e-05
1.22867e-06
-8.15983e-05
1.51555e-05
-0.000170027
5.34123e-05
-0.000187494
4.24879e-07
-8.20232e-05
1.05108e-05
-0.000180113
-2.15146e-07
-8.18081e-05
-0.000187017
-7.14084e-07
-8.1094e-05
-7.99787e-05
0.00677745
0.00118673
-0.00672515
0.00682817
0.00134744
0.00687707
0.00150847
0.00692379
0.00166942
0.0069678
0.00182982
0.00700829
0.00198912
0.00704398
0.00214663
0.00707296
0.00230143
0.00709244
0.00245227
0.00709847
0.00259746
0.00273469
0.00694501
0.00113404
-0.00689232
0.00699712
0.00129533
0.00704854
0.00145705
0.00709909
0.00161887
0.00714849
0.00178042
0.0071963
0.00194131
0.00724186
0.00210106
0.00728418
0.00225911
0.00732174
0.0024147
0.00735235
0.00256686
0.00271418
0.00712079
0.00108312
-0.00706987
0.00717209
0.00124403
0.00722375
0.0014054
0.00727568
0.00156694
0.00732775
0.00172834
0.00737976
0.0018893
0.00743136
0.00204946
0.00748206
0.00220841
0.00753113
0.00236564
0.00757747
0.00252051
0.00267218
0.00730893
0.00103446
-0.00726027
0.00735851
0.00119445
0.00740908
0.00135483
0.00746069
0.00151533
0.00751333
0.0016757
0.00756697
0.00183567
0.0076215
0.00199493
0.00767672
0.00215318
0.00773231
0.00231005
0.00778774
0.00246509
0.00261781
0.00750964
0.000987884
-0.00746306
0.00755747
0.00114661
0.00760666
0.00130563
0.00765729
0.0014647
0.00770944
0.00162355
0.00776316
0.00178195
0.00781845
0.00193964
0.00787527
0.00209636
0.00793348
0.00225184
0.00799282
0.00240575
0.00255786
0.00772133
0.000943077
-0.00767653
0.00776766
0.00110028
0.0078156
0.0012577
0.00786521
0.00141508
0.00791659
0.00157218
0.00796977
0.00172876
0.00802483
0.00188459
0.00808176
0.00203942
0.00814056
0.00219305
0.00820114
0.00234516
0.00249564
0.00794288
0.000899811
-0.00789962
0.0079879
0.00105526
0.00803474
0.00121086
0.00808345
0.00136637
0.00813409
0.00152154
0.00818673
0.00167613
0.0082414
0.00182992
0.00829815
0.00198267
0.00835705
0.00213415
0.00841812
0.00228409
0.00243237
0.00817399
0.00085802
-0.0081322
0.00821776
0.00101149
0.00826356
0.00116506
0.00831145
0.00131849
0.00836145
0.00147153
0.00841362
0.00162396
0.008468
0.00177554
0.00852463
0.00192603
0.00858356
0.00207523
0.00864481
0.00222284
0.00236877
0.00841423
0.000817628
-0.00837384
0.00845682
0.000968902
0.00850165
0.00112023
0.00854876
0.00127138
0.00859818
0.00142212
0.00864993
0.00157221
0.00870404
0.00172143
0.00876054
0.00186954
0.00881943
0.00201634
0.00888071
0.00216156
0.00230506
0.00866342
0.000778568
-0.00862436
0.00870488
0.000927444
0.00874877
0.00107634
0.00879512
0.00122503
0.00884395
0.00137329
0.00889528
0.00152088
0.00894912
0.00166759
0.00900548
0.00181319
0.00906435
0.00195746
0.00912575
0.00210016
0.00224111
0.00892149
0.000740783
-0.0088837
0.00896185
0.000887081
0.00900482
0.00103337
0.00905042
0.00117943
0.00909867
0.00132504
0.00914957
0.00146997
0.00920314
0.00161402
0.00925938
0.00175695
0.00931829
0.00189855
0.00937986
0.0020386
0.00217688
0.00918833
0.000704203