/*--------------------------------*- C++ -*----------------------------------*\
  =========                 |
  \\      /  F ield         | OpenFOAM: The Open Source CFD Toolbox
   \\    /   O peration     | Website:  https://openfoam.org
    \\  /    A nd           | Version:  7
     \\/     M anipulation  |
\*---------------------------------------------------------------------------*/
FoamFile
{
    version     2.0;
    format      ascii;
    class       volScalarField;
    location    "15";
    object      p;
}
// * * * * * * * * * * * * * * * * * * * * * * * * * * * * * * * * * * * * * //

dimensions      [0 2 -2 0 0 0 0];

internalField   nonuniform List<scalar> 
8500
(
-0.361137
-0.364626
-0.364028
-0.361185
-0.356443
-0.350007
-0.342165
-0.333222
-0.323391
-0.312719
-0.362205
-0.365505
-0.364781
-0.361823
-0.356974
-0.350439
-0.342506
-0.333488
-0.323577
-0.312726
-0.364336
-0.367258
-0.366282
-0.363094
-0.358031
-0.3513
-0.343184
-0.334014
-0.323944
-0.312732
-0.367516
-0.369874
-0.368523
-0.36499
-0.359607
-0.352582
-0.344192
-0.334792
-0.324482
-0.312724
-0.37173
-0.37334
-0.37149
-0.3675
-0.361691
-0.354276
-0.345519
-0.335811
-0.325179
-0.31268
-0.376955
-0.377635
-0.375166
-0.370608
-0.36427
-0.356367
-0.347153
-0.337057
-0.326016
-0.312573
-0.383163
-0.382736
-0.379529
-0.374294
-0.367326
-0.358842
-0.349079
-0.338513
-0.326973
-0.312369
-0.390323
-0.388614
-0.384554
-0.378537
-0.370841
-0.361684
-0.351281
-0.340161
-0.328028
-0.312025
-0.398401
-0.395236
-0.390211
-0.383311
-0.374794
-0.364876
-0.353745
-0.341985
-0.329157
-0.311495
-0.407352
-0.402567
-0.396468
-0.38859
-0.379163
-0.368402
-0.356457
-0.343971
-0.330337
-0.310724
-0.417134
-0.410563
-0.403289
-0.394342
-0.383926
-0.372246
-0.359407
-0.346107
-0.33155
-0.309655
-0.427693
-0.419177
-0.410631
-0.400536
-0.389059
-0.376396
-0.362591
-0.348393
-0.332782
-0.308225
-0.43897
-0.428354
-0.41845
-0.407135
-0.394538
-0.380839
-0.36601
-0.350837
-0.33403
-0.30637
-0.450896
-0.438035
-0.426693
-0.414099
-0.400339
-0.385569
-0.369676
-0.353462
-0.335305
-0.304039
-0.463389
-0.448148
-0.435302
-0.421387
-0.406435
-0.390582
-0.373614
-0.356319
-0.336661
-0.301228
-0.476351
-0.458614
-0.444213
-0.428948
-0.412799
-0.395876
-0.377858
-0.359491
-0.33823
-0.29807
-0.48967
-0.469342
-0.453353
-0.436728
-0.419395
-0.401446
-0.382456
-0.363089
-0.340148
-0.294685
-0.503215
-0.480232
-0.462637
-0.444663
-0.426185
-0.407291
-0.387479
-0.367247
-0.342303
-0.290456
-0.51684
-0.491171
-0.471976
-0.452678
-0.433116
-0.413409
-0.393061
-0.372294
-0.345042
-0.285659
-0.530385
-0.502038
-0.481266
-0.460686
-0.440113
-0.419763
-0.399316
-0.378895
-0.352442
-0.296216
-0.543679
-0.512706
-0.490398
-0.468579
-0.447058
-0.426191
-0.405959
-0.386787
-0.368936
-0.364458
-0.55655
-0.523042
-0.499254
-0.476241
-0.453798
-0.432399
-0.412243
-0.39373
-0.379168
-0.38737
-0.568834
-0.532916
-0.507718
-0.483559
-0.460203
-0.438188
-0.417794
-0.399144
-0.384383
-0.39365
-0.580373
-0.542203
-0.515681
-0.490429
-0.466171
-0.443469
-0.422595
-0.403418
-0.387697
-0.395763
-0.591026
-0.550782
-0.523037
-0.496757
-0.471621
-0.448185
-0.426665
-0.406741
-0.389833
-0.395341
-0.600662
-0.55854
-0.529681
-0.502451
-0.476471
-0.452275
-0.429995
-0.409147
-0.390852
-0.393115
-0.609164
-0.565365
-0.535513
-0.507419
-0.480639
-0.455675
-0.432555
-0.410658
-0.390855
-0.389646
-0.616422
-0.571151
-0.540431
-0.511565
-0.484042
-0.458315
-0.434306
-0.411286
-0.38993
-0.385211
-0.622327
-0.575789
-0.544331
-0.514793
-0.486588
-0.460117
-0.435196
-0.411017
-0.388108
-0.379926
-0.626772
-0.579171
-0.547108
-0.517001
-0.488183
-0.460996
-0.435159
-0.409815
-0.385383
-0.373831
-0.629647
-0.581188
-0.548654
-0.518084
-0.488726
-0.460862
-0.434122
-0.407628
-0.381726
-0.366926
-0.630838
-0.581726
-0.548858
-0.517934
-0.488115
-0.459619
-0.432003
-0.404393
-0.377088
-0.359186
-0.630226
-0.580671
-0.547607
-0.516441
-0.48624
-0.457167
-0.428713
-0.400037
-0.371409
-0.350569
-0.627686
-0.577905
-0.544786
-0.513491
-0.482995
-0.453404
-0.424163
-0.394484
-0.364623
-0.341029
-0.623092
-0.573311
-0.540281
-0.508972
-0.47827
-0.448229
-0.418261
-0.387653
-0.356659
-0.330508
-0.616317
-0.56677
-0.533976
-0.502772
-0.471958
-0.44154
-0.410916
-0.379463
-0.347445
-0.318949
-0.607234
-0.558169
-0.525762
-0.494784
-0.463954
-0.43324
-0.402039
-0.369837
-0.336912
-0.306295
-0.595723
-0.547398
-0.515532
-0.484902
-0.454157
-0.423234
-0.391545
-0.358701
-0.324994
-0.292488
-0.58167
-0.534352
-0.503184
-0.47303
-0.442475
-0.411436
-0.379358
-0.345986
-0.311631
-0.277477
-0.564972
-0.51894
-0.48863
-0.459078
-0.428823
-0.397768
-0.365407
-0.331633
-0.296774
-0.261213
-0.545544
-0.501081
-0.471789
-0.442969
-0.413127
-0.382163
-0.349635
-0.315592
-0.28038
-0.24366
-0.523307
-0.480704
-0.452591
-0.424635
-0.395322
-0.364562
-0.331993
-0.297823
-0.262418
-0.224783
-0.498211
-0.457758
-0.430986
-0.404025
-0.375362
-0.344925
-0.312446
-0.278302
-0.242871
-0.204564
-0.470225
-0.432212
-0.406939
-0.381104
-0.353213
-0.323225
-0.290976
-0.257015
-0.221733
-0.182992
-0.439343
-0.404053
-0.380434
-0.355855
-0.328862
-0.299452
-0.267579
-0.233966
-0.199013
-0.160068
-0.405583
-0.373292
-0.351474
-0.32828
-0.302311
-0.273614
-0.242269
-0.209172
-0.174735
-0.135808
-0.368992
-0.339959
-0.320086
-0.298402
-0.273584
-0.245739
-0.215077
-0.182666
-0.148935
-0.11024
-0.329643
-0.304113
-0.286318
-0.266265
-0.242725
-0.215872
-0.186052
-0.154499
-0.121663
-0.0833665
-0.287638
-0.265834
-0.250241
-0.231935
-0.209802
-0.184083
-0.155265
-0.124749
-0.0930255
-0.0551289
-0.243103
-0.225227
-0.211949
-0.195503
-0.1749
-0.150459
-0.122806
-0.0935154
-0.0631674
-0.0256674
-0.196195
-0.182422
-0.17156
-0.157077
-0.138129
-0.115108
-0.0887843
-0.0608632
-0.031757
0.00427041
-0.147092
-0.13757
-0.129214
-0.116793
-0.0996189
-0.0781609
-0.0533266
-0.0269458
0.000710547
0.0352816
-0.0959977
-0.0908429
-0.0850703
-0.0748043
-0.0595209
-0.0397668
-0.0165817
0.00810014
0.0341167
0.0672
-0.0431312
-0.0424359
-0.0393113
-0.0312831
-0.0180055
-9.54276e-05
0.021283
0.0441164
0.0683428
0.0998084
0.0112783
0.00742757
0.00786784
0.0135786
0.0247405
0.0406671
0.0600796
0.0809177
0.103218
0.132889
0.0669546
0.0585417
0.0562487
0.0595734
0.0685146
0.0823195
0.0996027
0.1183
0.138543
0.166152
0.123643
0.110656
0.105602
0.106481
0.113102
0.124648
0.139633
0.156055
0.174129
0.199121
0.181071
0.163516
0.155688
0.154069
0.158278
0.167429
0.179939
0.193977
0.209762
0.231083
0.238954
0.21686
0.206256
0.2021
0.203813
0.210434
0.220277
0.231767
0.244745
0.260892
0.297
0.270414
0.257045
0.250326
0.249479
0.253454
0.260444
0.269037
0.277365
0.284106
0.354909
0.323898
0.307789
0.298501
0.295057
0.296325
0.300396
0.305821
0.307011
0.294735
0.412386
0.37703
0.35822
0.346371
0.340322
0.338897
0.340141
0.342772
0.341141
0.328473
0.469119
0.42952
0.408056
0.393672
0.38503
0.380939
0.379447
0.379405
0.375887
0.364633
0.524793
0.48107
0.457016
0.440134
0.428921
0.422189
0.418003
0.415262
0.40957
0.398403
0.579097
0.53139
0.504818
0.485485
0.471734
0.462388
0.455535
0.450093
0.442098
0.430194
0.631721
0.580186
0.551183
0.529461
0.513217
0.501293
0.491801
0.483675
0.473362
0.460264
0.682359
0.627175
0.595836
0.5718
0.553124
0.538674
0.526585
0.5158
0.503162
0.488576
0.730717
0.672079
0.638515
0.612252
0.591221
0.574313
0.559685
0.546291
0.53134
0.515075
0.776515
0.714634
0.678965
0.650578
0.627286
0.608007
0.590921
0.574992
0.557776
0.539722
0.819484
0.754586
0.716945
0.686551
0.661109
0.639568
0.620129
0.60177
0.582368
0.562488
0.859376
0.7917
0.75223
0.71996
0.692498
0.668822
0.647159
0.626502
0.605025
0.58334
0.895959
0.825756
0.784609
0.750608
0.721273
0.695612
0.671877
0.649078
0.625666
0.602243
0.929023
0.856552
0.813892
0.778316
0.747271
0.719794
0.69416
0.6694
0.644215
0.61916
0.958378
0.883907
0.839903
0.802924
0.770346
0.74124
0.713899
0.687381
0.660605
0.634056
0.983856
0.907659
0.862491
0.824286
0.790369
0.759835
0.731
0.702941
0.674773
0.646897
1.00531
0.927669
0.88152
0.842281
0.807229
0.775482
0.745378
0.716013
0.686666
0.657652
1.02262
0.943819
0.89688
0.856803
0.82083
0.7881
0.756966
0.726541
0.696237
0.666292
1.03569
0.956015
0.908479
0.867768
0.831097
0.797621
0.765705
0.734478
0.703449
0.672793
1.04445
0.964185
0.91625
0.875114
0.837974
0.803997
0.771556
0.739789
0.708274
0.677138
1.04884
0.968283
0.920147
0.878797
0.841422
0.807193
0.774488
0.74245
0.710691
0.679314
1.04884
0.968283
0.920147
0.878797
0.841422
0.807193
0.774488
0.74245
0.710691
0.679314
1.04445
0.964185
0.91625
0.875114
0.837974
0.803997
0.771556
0.739789
0.708274
0.677138
1.03569
0.956015
0.908479
0.867768
0.831097
0.797621
0.765705
0.734478
0.703449
0.672793
1.02262
0.943819
0.89688
0.856803
0.82083
0.7881
0.756966
0.726541
0.696237
0.666292
1.00531
0.927669
0.88152
0.842281
0.807229
0.775482
0.745378
0.716013
0.686666
0.657652
0.983856
0.907659
0.862491
0.824286
0.790369
0.759835
0.731
0.702941
0.674773
0.646897
0.958378
0.883907
0.839903
0.802924
0.770346
0.74124
0.713899
0.68738
0.660605
0.634056
0.929023
0.856552
0.813892
0.778316
0.747271
0.719794
0.69416
0.6694
0.644215
0.61916
0.895959
0.825756
0.784609
0.750608
0.721273
0.695612
0.671877
0.649078
0.625666
0.602243
0.859376
0.7917
0.75223
0.71996
0.692498
0.668822
0.647159
0.626502
0.605025
0.58334
0.819484
0.754586
0.716945
0.686551
0.661109
0.639568
0.620129
0.60177
0.582368
0.562488
0.776515
0.714634
0.678965
0.650578
0.627286
0.608007
0.590921
0.574992
0.557776
0.539722
0.730717
0.672079
0.638515
0.612252
0.591221
0.574313
0.559685
0.546291
0.53134
0.515075
0.682359
0.627175
0.595836
0.5718
0.553124
0.538674
0.526585
0.5158
0.503162
0.488576
0.631721
0.580186
0.551183
0.529461
0.513217
0.501293
0.491801
0.483675
0.473362
0.460264
0.579097
0.53139
0.504818
0.485485
0.471734
0.462388
0.455535
0.450093
0.442098
0.430194
0.524793
0.48107
0.457016
0.440134
0.42892
0.422189
0.418003
0.415262
0.409569
0.398403
0.469119
0.429519
0.408056
0.393672
0.38503
0.380939
0.379447
0.379405
0.375887
0.364633
0.412386
0.37703
0.35822
0.346371
0.340322
0.338897
0.340141
0.342772
0.341141
0.328473
0.354909
0.323898
0.307789
0.298501
0.295057
0.296325
0.300395
0.305821
0.307011
0.294735
0.297
0.270414
0.257045
0.250326
0.249479
0.253454
0.260444
0.269037
0.277365
0.284106
0.238954
0.21686
0.206256
0.202099
0.203813
0.210434
0.220277
0.231767
0.244745
0.260892
0.181071
0.163516
0.155688
0.154069
0.158277
0.167429
0.179939
0.193977
0.209762
0.231083
0.123643
0.110656
0.105602
0.106481
0.113102
0.124648
0.139633
0.156055
0.174129
0.199121
0.0669545
0.0585416
0.0562486
0.0595733
0.0685145
0.0823194
0.0996027
0.118299
0.138542
0.166152
0.0112783
0.00742752
0.00786779
0.0135786
0.0247405
0.0406671
0.0600796
0.0809177
0.103218
0.132889
-0.0431312
-0.042436
-0.0393113
-0.0312832
-0.0180055
-9.54883e-05
0.021283
0.0441163
0.0683427
0.0998084
-0.0959978
-0.0908429
-0.0850704
-0.0748044
-0.059521
-0.0397669
-0.0165818
0.00810008
0.0341167
0.0671999
-0.147092
-0.13757
-0.129214
-0.116793
-0.099619
-0.078161
-0.0533267
-0.0269459
0.000710479
0.0352815
-0.196195
-0.182422
-0.17156
-0.157078
-0.138129
-0.115108
-0.0887844
-0.0608632
-0.0317571
0.00427034
-0.243103
-0.225227
-0.211949
-0.195503
-0.1749
-0.150459
-0.122806
-0.0935155
-0.0631675
-0.0256674
-0.287638
-0.265834
-0.250241
-0.231935
-0.209802
-0.184083
-0.155265
-0.12475
-0.0930255
-0.055129
-0.329644
-0.304113
-0.286318
-0.266265
-0.242726
-0.215873
-0.186052
-0.154499
-0.121663
-0.0833666
-0.368992
-0.339959
-0.320086
-0.298402
-0.273584
-0.245739
-0.215077
-0.182666
-0.148935
-0.11024
-0.405583
-0.373292
-0.351474
-0.32828
-0.302311
-0.273614
-0.242269
-0.209172
-0.174735
-0.135808
-0.439343
-0.404053
-0.380434
-0.355855
-0.328862
-0.299452
-0.267579
-0.233966
-0.199013
-0.160068
-0.470225
-0.432212
-0.406939
-0.381104
-0.353213
-0.323225
-0.290976
-0.257015
-0.221733
-0.182992
-0.498211
-0.457758
-0.430986
-0.404025
-0.375362
-0.344925
-0.312446
-0.278302
-0.242871
-0.204564
-0.523307
-0.480704
-0.452591
-0.424635
-0.395322
-0.364562
-0.331993
-0.297824
-0.262418
-0.224783
-0.545544
-0.501081
-0.471789
-0.442969
-0.413127
-0.382163
-0.349635
-0.315592
-0.28038
-0.24366
-0.564972
-0.51894
-0.48863
-0.459078
-0.428823
-0.397768
-0.365408
-0.331633
-0.296774
-0.261214
-0.58167
-0.534352
-0.503185
-0.47303
-0.442475
-0.411436
-0.379358
-0.345986
-0.311632
-0.277477
-0.595723
-0.547398
-0.515532
-0.484902
-0.454157
-0.423234
-0.391545
-0.358701
-0.324994
-0.292488
-0.607234
-0.558169
-0.525762
-0.494784
-0.463954
-0.43324
-0.402039
-0.369837
-0.336912
-0.306295
-0.616317
-0.566771
-0.533977
-0.502773
-0.471958
-0.44154
-0.410916
-0.379463
-0.347445
-0.31895
-0.623092
-0.573311
-0.540281
-0.508972
-0.478271
-0.448229
-0.418261
-0.387653
-0.356659
-0.330508
-0.627686
-0.577905
-0.544786
-0.513491
-0.482995
-0.453404
-0.424163
-0.394484
-0.364623
-0.341029
-0.630226
-0.580671
-0.547607
-0.516441
-0.48624
-0.457167
-0.428713
-0.400037
-0.371409
-0.35057
-0.630838
-0.581726
-0.548858
-0.517934
-0.488115
-0.459619
-0.432003
-0.404393
-0.377088
-0.359186
-0.629647
-0.581188
-0.548654
-0.518084
-0.488727
-0.460862
-0.434122
-0.407628
-0.381726
-0.366926
-0.626772
-0.579171
-0.547108
-0.517001
-0.488183
-0.460996
-0.43516
-0.409815
-0.385384
-0.373831
-0.622327
-0.575789
-0.544331
-0.514793
-0.486588
-0.460117
-0.435196
-0.411017
-0.388108
-0.379926
-0.616422
-0.571151
-0.540431
-0.511565
-0.484042
-0.458315
-0.434306
-0.411286
-0.38993
-0.385211
-0.609165
-0.565366
-0.535513
-0.507419
-0.48064
-0.455675
-0.432555
-0.410658
-0.390856
-0.389646
-0.600662
-0.55854
-0.529681
-0.502451
-0.476471
-0.452275
-0.429995
-0.409147
-0.390852
-0.393115
-0.591026
-0.550782
-0.523037
-0.496757
-0.471621
-0.448185
-0.426666
-0.406742
-0.389833
-0.395341
-0.580373
-0.542203
-0.515681
-0.490429
-0.466171
-0.443469
-0.422595
-0.403418
-0.387697
-0.395763
-0.568834
-0.532916
-0.507718
-0.483559
-0.460203
-0.438188
-0.417795
-0.399144
-0.384383
-0.39365
-0.556551
-0.523042
-0.499254
-0.476241
-0.453799
-0.432399
-0.412243
-0.39373
-0.379168
-0.38737
-0.543679
-0.512706
-0.490398
-0.46858
-0.447058
-0.426191
-0.405959
-0.386787
-0.368936
-0.364458
-0.530385
-0.502038
-0.481267
-0.460686
-0.440114
-0.419763
-0.399316
-0.378895
-0.352442
-0.296216
-0.516841
-0.491171
-0.471976
-0.452678
-0.433116
-0.413409
-0.393061
-0.372294
-0.345042
-0.285659
-0.503215
-0.480232
-0.462637
-0.444663
-0.426185
-0.407291
-0.387479
-0.367247
-0.342303
-0.290456
-0.48967
-0.469342
-0.453353
-0.436728
-0.419395
-0.401446
-0.382456
-0.363089
-0.340148
-0.294685
-0.476351
-0.458614
-0.444213
-0.428948
-0.412799
-0.395876
-0.377858
-0.359491
-0.33823
-0.29807
-0.463389
-0.448148
-0.435302
-0.421387
-0.406435
-0.390582
-0.373614
-0.356319
-0.336662
-0.301228
-0.450896
-0.438035
-0.426693
-0.4141
-0.400339
-0.385569
-0.369676
-0.353463
-0.335305
-0.304039
-0.43897
-0.428355
-0.41845
-0.407135
-0.394538
-0.380839
-0.36601
-0.350837
-0.33403
-0.30637
-0.427693
-0.419177
-0.410631
-0.400536
-0.389059
-0.376396
-0.362591
-0.348393
-0.332782
-0.308225
-0.417134
-0.410563
-0.403289
-0.394342
-0.383926
-0.372247
-0.359407
-0.346107
-0.33155
-0.309655
-0.407352
-0.402567
-0.396469
-0.38859
-0.379163
-0.368402
-0.356457
-0.343971
-0.330337
-0.310724
-0.398401
-0.395236
-0.390211
-0.383311
-0.374794
-0.364876
-0.353745
-0.341985
-0.329157
-0.311495
-0.390323
-0.388614
-0.384554
-0.378537
-0.370841
-0.361684
-0.351281
-0.340161
-0.328028
-0.312025
-0.383163
-0.382736
-0.379529
-0.374294
-0.367326
-0.358842
-0.349079
-0.338513
-0.326973
-0.312369
-0.376955
-0.377635
-0.375166
-0.370608
-0.36427
-0.356367
-0.347153
-0.337057
-0.326016
-0.312573
-0.37173
-0.37334
-0.37149
-0.3675
-0.361691
-0.354276
-0.345519
-0.335811
-0.325179
-0.31268
-0.367516
-0.369874
-0.368523
-0.36499
-0.359607
-0.352582
-0.344192
-0.334792
-0.324482
-0.312724
-0.364336
-0.367258
-0.366282
-0.363094
-0.358031
-0.3513
-0.343184
-0.334014
-0.323944
-0.312732
-0.362205
-0.365505
-0.364781
-0.361823
-0.356974
-0.350439
-0.342506
-0.333488
-0.323577
-0.312726
-0.361137
-0.364626
-0.364028
-0.361185
-0.356443
-0.350007
-0.342165
-0.333222
-0.323391
-0.312719
-0.302994
-0.289276
-0.275188
-0.260036
-0.244247
-0.22814
-0.211946
-0.1959
-0.180184
-0.164941
-0.150279
-0.136271
-0.12297
-0.110402
-0.0985852
-0.0875104
-0.0771927
-0.0675639
-0.0587101
-0.0503859
-0.0429879
-0.0356689
-0.0299026
-0.0229112
-0.0195226
-0.0111998
-0.0124802
0.00137941
-0.01086
0.0193408
-0.303622
-0.289598
-0.27546
-0.260261
-0.244434
-0.228302
-0.21209
-0.196031
-0.180304
-0.165052
-0.150381
-0.136365
-0.123055
-0.110479
-0.0986544
-0.087572
-0.0772472
-0.0676118
-0.0587517
-0.0504219
-0.0430188
-0.0356954
-0.0299244
-0.0229307
-0.0195363
-0.0112159
-0.0124844
0.00135972
-0.0108486
0.0192991
-0.304875
-0.29024
-0.276001
-0.260709
-0.244806
-0.228625
-0.212377
-0.196292
-0.180543
-0.165273
-0.150584
-0.136551
-0.123225
-0.110633
-0.0987925
-0.0876952
-0.077356
-0.0677073
-0.0588349
-0.050494
-0.0430803
-0.0357485
-0.0299679
-0.0229698
-0.0195635
-0.0112482
-0.012493
0.0013204
-0.0108259
0.0192158
-0.30674
-0.291192
-0.276803
-0.261373
-0.245357
-0.229104
-0.212803
-0.196679
-0.1809
-0.165602
-0.150888
-0.13683
-0.123479
-0.110863
-0.0989992
-0.0878793
-0.0775189
-0.0678502
-0.0589593
-0.0506017
-0.0431724
-0.0358278
-0.0300329
-0.0230283
-0.0196042
-0.0112964
-0.0125057
0.00126161
-0.0107919
0.0190916
-0.309203
-0.292446
-0.277857
-0.262244
-0.24608
-0.229733
-0.213364
-0.197191
-0.181371
-0.166038
-0.15129
-0.1372
-0.123817
-0.111168
-0.0992736
-0.0881238
-0.0777351
-0.0680399
-0.0591246
-0.0507448
-0.0432946
-0.0359331
-0.0301192
-0.023106
-0.0196582
-0.0113605
-0.0125226
0.00118353
-0.0107468
0.0189271
-0.312241
-0.293987
-0.279148
-0.263311
-0.246966
-0.230505
-0.214055
-0.197821
-0.181954
-0.166577
-0.151789
-0.137659
-0.124236
-0.111548
-0.0996147
-0.0884278
-0.078004
-0.068276
-0.0593301
-0.0509227
-0.0434466
-0.0360641
-0.0302264
-0.0232026
-0.0197253
-0.0114403
-0.0125436
0.00108646
-0.010691
0.0187233
-0.315824
-0.295798
-0.280659
-0.264559
-0.248002
-0.231411
-0.214868
-0.198566
-0.182643
-0.167218
-0.152382
-0.138205
-0.124735
-0.112
-0.100021
-0.0887904
-0.0783247
-0.0685574
-0.0595751
-0.0511348
-0.0436277
-0.0362203
-0.0303542
-0.0233178
-0.0198053
-0.0115354
-0.0125686
0.000970716
-0.0106246
0.0184813
-0.319915
-0.297859
-0.282367
-0.26597
-0.249177
-0.23244
-0.215795
-0.199419
-0.183435
-0.167955
-0.153066
-0.138835
-0.125312
-0.112523
-0.100492
-0.0892102
-0.0786961
-0.0688834
-0.0598589
-0.0513806
-0.0438375
-0.0364011
-0.0305021
-0.0234513
-0.0198977
-0.0116457
-0.0125975
0.000836712
-0.010548
0.0182025
-0.324469
-0.30015
-0.284249
-0.267524
-0.250474
-0.23358
-0.216827
-0.200372
-0.184324
-0.168785
-0.153838
-0.139548
-0.125964
-0.113116
-0.101025
-0.0896859
-0.079117
-0.0692529
-0.0601805
-0.051659
-0.0440751
-0.0366061
-0.0306696
-0.0236026
-0.0200023
-0.0117708
-0.0126302
0.000684899
-0.0104616
0.0178884
-0.329423
-0.302647
-0.286275
-0.269198
-0.251877
-0.234819
-0.217955
-0.20142
-0.185305
-0.169703
-0.154693
-0.140339
-0.12669
-0.113776
-0.101619
-0.0902159
-0.079586
-0.0696646
-0.0605389
-0.0519693
-0.0443398
-0.0368344
-0.0308559
-0.0237712
-0.0201187
-0.0119103
-0.0126666
0.000515786
-0.0103658
0.0175407
-0.3347
-0.305324
-0.288411
-0.270966
-0.253368
-0.236143
-0.219169
-0.202553
-0.186371
-0.170705
-0.155629
-0.141207
-0.127486
-0.1145
-0.102272
-0.0907985
-0.0801017
-0.0701173
-0.0609328
-0.0523103
-0.0446305
-0.0370853
-0.0310606
-0.0239565
-0.0202463
-0.0120639
-0.0127065
0.00032993
-0.0102611
0.0171612
-0.340194
-0.308155
-0.290622
-0.272799
-0.25493
-0.23754
-0.220459
-0.203766
-0.187516
-0.171785
-0.156641
-0.142146
-0.12835
-0.115286
-0.102981
-0.0914318
-0.0806623
-0.0706095
-0.061361
-0.052681
-0.0449464
-0.037358
-0.0312827
-0.0241581
-0.0203848
-0.012231
-0.0127499
0.000127934
-0.010148
0.0167519
-0.345755
-0.311113
-0.292867
-0.274665
-0.256543
-0.238995
-0.221815
-0.205049
-0.188735
-0.172938
-0.157724
-0.143154
-0.129279
-0.116133
-0.103744
-0.092114
-0.0812663
-0.0711398
-0.0618222
-0.0530803
-0.0452865
-0.0376517
-0.0315217
-0.0243752
-0.0205337
-0.0124113
-0.0127967
-8.95656e-05
-0.0100271
0.0163147
-0.351175
-0.314163
-0.295107
-0.276528
-0.258186
-0.240496
-0.223228
-0.206396
-0.190022
-0.174161
-0.158877
-0.144229
-0.13027
-0.117037
-0.10456
-0.0928437
-0.0819123
-0.071707
-0.0623155
-0.0535073
-0.0456499
-0.0379656
-0.0317768
-0.0246074
-0.0206925
-0.0126042
-0.0128467
-0.000321909
-0.00989894
0.0158518
-0.356144
-0.317241
-0.297288
-0.278344
-0.259835
-0.242026
-0.224685
-0.207799
-0.191369
-0.175446
-0.160091
-0.145364
-0.131319
-0.117995
-0.105426
-0.0936177
-0.0825978
-0.0723088
-0.0628385
-0.05396
-0.0460348
-0.0382983
-0.0320467
-0.0248536
-0.0208603
-0.0128091
-0.0128995
-0.000568369
-0.00976393
0.0153652
-0.360163
-0.320227
-0.299357
-0.280064
-0.261459
-0.243566
-0.22617
-0.209239
-0.19276
-0.17678
-0.161355
-0.146548
-0.132414
-0.118996
-0.106332
-0.0944278
-0.0833152
-0.0729388
-0.0633859
-0.0544338
-0.0464374
-0.0386465
-0.0323288
-0.0251117
-0.0210355
-0.0130247
-0.0129545
-0.000828032
-0.00962244
0.0148572
-0.362591
-0.323085
-0.301346
-0.281684
-0.263053
-0.245113
-0.227681
-0.210716
-0.194195
-0.178159
-0.162665
-0.147777
-0.133552
-0.120038
-0.107274
-0.0952713
-0.0840624
-0.0735949
-0.063956
-0.0549276
-0.0468569
-0.0390098
-0.032623
-0.0253817
-0.0212188
-0.0132509
-0.0130131
-0.00109999
-0.00947661
0.0143299
-0.36297
-0.325908
-0.303333
-0.283242
-0.264662
-0.246731
-0.22929
-0.212307
-0.195752
-0.179664
-0.1641
-0.149126
-0.134805
-0.121186
-0.108313
-0.0962011
-0.0848859
-0.0743176
-0.0645836
-0.0554705
-0.0473181
-0.0394082
-0.0329465
-0.025676
-0.0214218
-0.0134939
-0.0130831
-0.0013848
-0.00933241
0.0137854
-0.359223
-0.327359
-0.30482
-0.284495
-0.266152
-0.248365
-0.230989
-0.214035
-0.197477
-0.181356
-0.165733
-0.150676
-0.136254
-0.122521
-0.109527
-0.0972906
-0.0858521
-0.0751657
-0.0653191
-0.0561047
-0.0478547
-0.0398685
-0.0333183
-0.0260092
-0.021652
-0.0137601
-0.0131648
-0.00168573
-0.0091857
0.0132243
-0.3404
-0.323384
-0.304579
-0.284582
-0.266752
-0.249267
-0.232042
-0.215175
-0.198664
-0.182558
-0.166924
-0.151833
-0.137357
-0.123555
-0.11048
-0.098157
-0.0866269
-0.075851
-0.0659137
-0.0566204
-0.0482847
-0.040243
-0.0336055
-0.0262853
-0.0218108
-0.0140003
-0.0131814
-0.00199795
-0.00897757
0.0126446
-0.288241
-0.31392
-0.304306
-0.284665
-0.267013
-0.249555
-0.232218
-0.215212
-0.198572
-0.182359
-0.166646
-0.151506
-0.137005
-0.123199
-0.110134
-0.0978337
-0.0863301
-0.0755897
-0.06568
-0.0564319
-0.0481108
-0.0401339
-0.0334746
-0.0262709
-0.0216873
-0.0141224
-0.0129936
-0.00235713
-0.00858629
0.0119165
-0.268661
-0.300528
-0.296289
-0.278445
-0.262281
-0.245969
-0.229425
-0.213024
-0.196871
-0.181056
-0.16567
-0.150798
-0.136516
-0.122887
-0.109962
-0.0977706
-0.086348
-0.075671
-0.0657994
-0.0565892
-0.04827
-0.0403296
-0.0336268
-0.0264975
-0.0217847
-0.0144133
-0.0129605
-0.0028205
-0.0082665
0.0110363
-0.260738
-0.288597
-0.286529
-0.270416
-0.255749
-0.240734
-0.225189
-0.209593
-0.194111
-0.178858
-0.163947
-0.149474
-0.135525
-0.12217
-0.109469
-0.0974579
-0.0861763
-0.0756119
-0.0658196
-0.0566789
-0.0483895
-0.0405025
-0.0337763
-0.0267247
-0.0219015
-0.0147113
-0.0129603
-0.00328547
-0.00798601
0.0101255
-0.254771
-0.277366
-0.27691
-0.262412
-0.248956
-0.235119
-0.220555
-0.205774
-0.190985
-0.176323
-0.161917
-0.147874
-0.13429
-0.12124
-0.108792
-0.0969895
-0.0858747
-0.075446
-0.065754
-0.0567006
-0.0484571
-0.0406365
-0.0338987
-0.0269342
-0.0220077
-0.0150081
-0.0129574
-0.00376672
-0.00769663
0.00916112
-0.248909
-0.26638
-0.267069
-0.254141
-0.241764
-0.229047
-0.215484
-0.201555
-0.187504
-0.173481
-0.159624
-0.146052
-0.132868
-0.120158
-0.107993
-0.0964236
-0.0854978
-0.0752234
-0.0656479
-0.0566943
-0.048508
-0.0407613
-0.0340198
-0.0271464
-0.0221211
-0.0153155
-0.0129633
-0.00426979
-0.00740338
0.00814138
-0.242491
-0.255401
-0.256701
-0.245304
-0.233976
-0.222362
-0.209837
-0.196817
-0.183567
-0.170245
-0.156998
-0.143953
-0.13122
-0.118892
-0.107047
-0.095745
-0.0850364
-0.0749394
-0.0655001
-0.0566614
-0.0485458
-0.0408812
-0.0341454
-0.0273654
-0.0222486
-0.0156357
-0.012986
-0.00479203
-0.00711713
0.00707347
-0.235061
-0.24417
-0.245696
-0.2358
-0.225539
-0.215019
-0.203566
-0.191511
-0.179125
-0.166569
-0.153993
-0.141533
-0.129305
-0.117408
-0.105927
-0.0949293
-0.0844702
-0.0745777
-0.0652978
-0.0565918
-0.0485632
-0.0409905
-0.0342722
-0.0275884
-0.0223901
-0.0159666
-0.0130285
-0.00532958
-0.00684485
0.0059661
-0.226324
-0.232469
-0.233988
-0.225567
-0.216418
-0.206996
-0.196647
-0.185609
-0.174144
-0.162417
-0.150577
-0.138763
-0.127095
-0.115681
-0.10461
-0.0939562
-0.0837821
-0.0741241
-0.0650295
-0.0564765
-0.0485532
-0.041084
-0.0343968
-0.0278127
-0.0225448
-0.016306
-0.0130925
-0.00587871
-0.00659259
0.00482933
-0.216143
-0.220148
-0.221536
-0.214557
-0.206578
-0.198272
-0.189055
-0.179083
-0.168598
-0.157761
-0.146719
-0.13561
-0.124562
-0.113683
-0.103071
-0.092806
-0.0829552
-0.0735646
-0.0646838
-0.0563066
-0.048509
-0.0411567
-0.0345158
-0.0280354
-0.0227121
-0.016652
-0.0131802
-0.00643536
-0.00636672
0.00367539
-0.204503
-0.207115
-0.208342
-0.202761
-0.196009
-0.188841
-0.180781
-0.171916
-0.162463
-0.152574
-0.14239
-0.132049
-0.121678
-0.111391
-0.101289
-0.0914576
-0.0819715
-0.072884
-0.0642482
-0.0560721
-0.0484229
-0.0412026
-0.0346252
-0.0282533
-0.0228905
-0.017002
-0.0132928
-0.00699496
-0.00617351
0.00251882
-0.191483
-0.193347
-0.194455
-0.190216
-0.18473
-0.178723
-0.171836
-0.164112
-0.155733
-0.146842
-0.137572
-0.128056
-0.11842
-0.108779
-0.099239
-0.0898904
-0.0808123
-0.0720661
-0.063709
-0.0557616
-0.0482856
-0.0412147
-0.0347194
-0.0284623
-0.0230778
-0.0173531
-0.0134309
-0.00755243
-0.00601865
0.00137627
-0.177255
-0.178892
-0.179971
-0.177007
-0.172802
-0.167968
-0.162259
-0.155695
-0.148422
-0.140569
-0.132259
-0.123619
-0.114771
-0.10583
-0.0969033
-0.0880854
-0.0794599
-0.0710949
-0.0630519
-0.0553632
-0.0480873
-0.0411849
-0.0347923
-0.0286576
-0.0232704
-0.0177019
-0.0135938
-0.00810232
-0.00590676
0.000266063
-0.16207
-0.163868
-0.165034
-0.163265
-0.160323
-0.156657
-0.152118
-0.146715
-0.140563
-0.133775
-0.126461
-0.118739
-0.110725
-0.102532
-0.0942675
-0.0860272
-0.0778986
-0.0699553
-0.0622634
-0.0548648
-0.0478172
-0.0411047
-0.0348365
-0.0288335
-0.023464
-0.0180443
-0.0137796
-0.00863881
-0.00584103
-0.00079235
-0.146242
-0.148454
-0.149826
-0.149159
-0.147429
-0.144905
-0.141508
-0.13725
-0.132217
-0.126503
-0.120206
-0.113431
-0.106288
-0.0988852
-0.0913253
-0.0837061
-0.0761168
-0.068635
-0.0613308
-0.0542547
-0.047465
-0.0409649
-0.0348441
-0.0289835
-0.0236529
-0.0183756
-0.0139852
-0.00915586
-0.00582278
-0.00177923
-0.130118
-0.132876
-0.134556
-0.134887
-0.134287
-0.132853
-0.130551
-0.127401
-0.123465
-0.118817
-0.113541
-0.10773
-0.101482
-0.0948994
-0.08808
-0.0811198
-0.0741081
-0.0671254
-0.0602446
-0.0535231
-0.0470206
-0.0407566
-0.0348068
-0.029101
-0.0238308
-0.0186908
-0.0142058
-0.00964728
-0.00585109
-0.00267563
-0.114049
-0.117385
-0.119444
-0.120661
-0.121081
-0.120661
-0.119391
-0.117293
-0.114412
-0.110804
-0.106535
-0.101686
-0.0963439
-0.0905998
-0.0845464
-0.0782752
-0.0718738
-0.0654233
-0.0589986
-0.0526623
-0.0464759
-0.0404719
-0.0347164
-0.0291789
-0.0239906
-0.0189841
-0.0144357
-0.0101069
-0.00592265
-0.00346458
-0.0983603
-0.102233
-0.104707
-0.106689
-0.108005
-0.108504
-0.108182
-0.107064
-0.105179
-0.102564
-0.0992728
-0.095368
-0.0909256
-0.0860256
-0.0807519
-0.0751898
-0.0694234
-0.0635325
-0.0575924
-0.0516688
-0.0458252
-0.040104
-0.0345658
-0.0292105
-0.0241251
-0.0192498
-0.0146678
-0.0105288
-0.00603187
-0.00413216
-0.0833298
-0.0876515
-0.0905404
-0.0931677
-0.0952458
-0.096554
-0.0970835
-0.096859
-0.0958947
-0.0942127
-0.0918497
-0.088858
-0.0852948
-0.0812296
-0.0767364
-0.0718926
-0.0667765
-0.0614648
-0.0560314
-0.0505439
-0.0450664
-0.0396491
-0.0343492
-0.02919
-0.0242272
-0.0194822
-0.0148946
-0.0109075
-0.00617125
-0.00466867
-0.0691742
-0.0738365
-0.077112
-0.0802663
-0.0829723
-0.0849733
-0.0862509
-0.0868238
-0.0866951
-0.0858726
-0.0843786
-0.0822491
-0.0795303
-0.0762768
-0.0725518
-0.0684233
-0.0639622
-0.0592404
-0.0543287
-0.0492944
-0.0442019
-0.0391063
-0.0340633
-0.0291131
-0.0242907
-0.0196763
-0.0151084
-0.0112383
-0.0063317
-0.00506974
-0.0560463
-0.0609385
-0.0645522
-0.0681233
-0.0713304
-0.0739082
-0.0758269
-0.0770969
-0.0777114
-0.0776657
-0.0769689
-0.0756427
-0.0737198
-0.0712421
-0.0682603
-0.064832
-0.0610196
-0.0568884
-0.0525048
-0.0479341
-0.0432394
-0.0384791
-0.0337077
-0.0289777
-0.024311
-0.0198277
-0.0153019
-0.0115177
-0.0065033
-0.00533693
-0.0440401
-0.0490621
-0.0529553
-0.0568441
-0.0604381
-0.0634826
-0.065938
-0.0678048
-0.0690676
-0.0697113
-0.0697329
-0.0691415
-0.0679565
-0.0662073
-0.0639321
-0.0611774
-0.0579963
-0.0544464
-0.0505881
-0.046483
-0.0421924
-0.0377755
-0.033286
-0.0287843
-0.0242854
-0.0199338
-0.0154687
-0.0117437
-0.00667602
-0.00547804
-0.0332017
-0.0382713
-0.0423833
-0.0465044
-0.0503863
-0.0537979
-0.0566919
-0.0590592
-0.0608769
-0.0621214
-0.0627793
-0.0628481
-0.0623354
-0.0612582
-0.0596433
-0.0575254
-0.0549478
-0.0519594
-0.048614
-0.0449683
-0.0410803
-0.0370085
-0.0328057
-0.0285367
-0.024214
-0.0199939
-0.0156042
-0.0119164
-0.00684064
-0.0055067
-0.0235431
-0.0285983
-0.0328723
-0.0371549
-0.0412426
-0.0449344
-0.0481787
-0.0509572
-0.0532408
-0.0549994
-0.0562108
-0.0568626
-0.0569516
-0.0564836
-0.0554739
-0.053947
-0.0519353
-0.0494792
-0.0466249
-0.0434234
-0.0399284
-0.0361964
-0.0322791
-0.0282425
-0.0240997
-0.0200095
-0.0157056
-0.0120378
-0.0069895
-0.00544153
-0.0150557
-0.020054
-0.0244411
-0.0288291
-0.0330569
-0.036956
-0.0404731
-0.0435824
-0.0462499
-0.0484401
-0.050124
-0.051281
-0.0518984
-0.051972
-0.0515068
-0.0505172
-0.0490253
-0.0470631
-0.044669
-0.0418876
-0.0387676
-0.0353626
-0.0317226
-0.027913
-0.0239488
-0.0199851
-0.0157728
-0.0121123
-0.00711716
-0.00530469
-0.00772311
-0.0126392
-0.0170999