/*--------------------------------*- C++ -*----------------------------------*\
  =========                 |
  \\      /  F ield         | OpenFOAM: The Open Source CFD Toolbox
   \\    /   O peration     | Website:  https://openfoam.org
    \\  /    A nd           | Version:  7
     \\/     M anipulation  |
\*---------------------------------------------------------------------------*/
FoamFile
{
    version     2.0;
    format      ascii;
    class       surfaceScalarField;
    location    "15";
    object      phi;
}
// * * * * * * * * * * * * * * * * * * * * * * * * * * * * * * * * * * * * * //

dimensions      [0 3 -1 0 0 0 0];

internalField   nonuniform List<scalar> 
16735
(
-1.83349e-06
1.83349e-06
-1.98556e-12
-5.4593e-06
3.62582e-06
-6.78178e-12
-9.39759e-06
3.9383e-06
-1.27404e-11
-1.21801e-05
2.78257e-06
-1.99922e-11
-1.23789e-05
1.98824e-07
-2.85661e-11
-8.65728e-06
-3.72162e-06
-3.85186e-11
1.59599e-07
-8.81683e-06
-4.97143e-11
1.49752e-05
-1.48155e-05
-6.1982e-11
3.63456e-05
-2.13703e-05
-7.59107e-11
-2.79339e-05
-9.1132e-11
6.42796e-05
-1.77755e-06
3.61104e-06
-5.2382e-06
7.08647e-06
-8.89282e-06
7.59293e-06
-1.12608e-05
5.15059e-06
-1.08976e-05
-1.64421e-07
-6.44427e-06
-8.17495e-06
3.30144e-06
-1.85625e-05
1.92764e-05
-3.07904e-05
4.20632e-05
-4.41571e-05
-5.75566e-05
7.16859e-05
-1.66606e-06
5.2771e-06
-4.79739e-06
1.02178e-05
-7.88651e-06
1.0682e-05
-9.42845e-06
6.69254e-06
-7.94563e-06
-1.64724e-06
-2.03509e-06
-1.40855e-05
9.56139e-06
-3.0159e-05
2.78441e-05
-4.90731e-05
5.34537e-05
-6.97667e-05
-9.05474e-05
8.64444e-05
-1.49975e-06
6.77685e-06
-4.13953e-06
1.28576e-05
-6.38483e-06
1.29273e-05
-6.69493e-06
7.00264e-06
-3.54385e-06
-4.79833e-06
4.53655e-06
-2.21659e-05
1.88886e-05
-4.45111e-05
4.0609e-05
-7.07935e-05
7.04281e-05
-9.95859e-05
-0.000128567
0.000108447
-1.27959e-06
8.05644e-06
-3.26829e-06
1.48463e-05
-4.39645e-06
1.40555e-05
-3.07724e-06
5.68344e-06
2.2779e-06
-1.01535e-05
1.32223e-05
-3.31103e-05
3.12099e-05
-6.24987e-05
5.74686e-05
-9.70522e-05
9.2854e-05
-0.000134971
-0.000173247
0.000137535
-1.00674e-06
9.06318e-06
-2.18799e-06
1.60275e-05
-1.93179e-06
1.37993e-05
1.40382e-06
2.34783e-06
9.48234e-06
-1.8232e-05
2.39608e-05
-4.75888e-05
4.64312e-05
-8.49691e-05
7.82893e-05
-0.00012891
0.000120556
-0.000177238
-0.000226185
0.000173495
-6.82338e-07
9.74552e-06
-9.03158e-07
1.62483e-05
9.97803e-07
1.18983e-05
6.72496e-06
-3.37932e-06
1.80271e-05
-2.95341e-05
3.66804e-05
-6.6242e-05
6.44403e-05
-0.000112729
0.000102908
-0.000167378
0.00015332
-0.00022765
-0.000288931
0.000216065
-3.07541e-07
1.00531e-05
5.81657e-07
1.53591e-05
4.38084e-06
8.09916e-06
1.28622e-05
-1.18607e-05
2.7867e-05
-4.45389e-05
5.13027e-05
-8.96777e-05
8.51107e-05
-0.000146537
0.000131138
-0.000213405
0.000190889
-0.000287402
-0.000362977
0.000264936
1.17975e-07
9.93508e-06
2.26292e-06
1.32142e-05
8.20689e-06
2.15519e-06
1.97922e-05
-2.34461e-05
3.89566e-05
-6.37033e-05
6.77466e-05
-0.000118468
0.000108307
-0.000187097
0.000162768
-0.000267866
0.000232973
-0.000357607
-0.000449749
0.000319745
5.9188e-07
9.3432e-06
4.13764e-06
9.66844e-06
1.24667e-05
-6.17392e-06
2.74938e-05
-3.84731e-05
5.12533e-05
-8.74628e-05
8.59326e-05
-0.000153147
0.00013389
-0.000235055
0.000197575
-0.000331552
0.000279247
-0.000439278
-0.000550588
0.000380086
1.11571e-06
8.22749e-06
6.20378e-06
4.58037e-06
1.71528e-05
-1.71229e-05
3.59483e-05
-5.72686e-05
6.47188e-05
-0.000116233
0.000105787
-0.000194216
0.000161726
-0.000290994
0.000235329
-0.000405154
0.000329356
-0.000533306
-0.000666731
0.000445499
1.68934e-06
6.53815e-06
8.45977e-06
-2.19006e-06
2.22583e-05
-3.09214e-05
4.51397e-05
-8.015e-05
7.93207e-05
-0.000150414
0.000127248
-0.000242143
0.000191693
-0.000355439
0.000275803
-0.000489264
0.000382927
-0.000640429
-0.000799279
0.000515475
2.31306e-06
4.22509e-06
1.09037e-05
-1.07807e-05
2.77761e-05
-4.77938e-05
5.50526e-05
-0.000107427
9.50313e-05
-0.000190393
0.000150265
-0.000297377
0.000223693
-0.000428867
0.000318796
-0.000584367
0.00043958
-0.000761213
-0.000949151
0.000589452
2.98676e-06
1.23833e-06
1.35319e-05
-2.13258e-05
3.36956e-05
-6.79576e-05
6.56682e-05
-0.000139399
0.000111824
-0.000236549
0.000174801
-0.000360354
0.000257659
-0.000511725
0.00036415
-0.000690859
0.000498959
-0.000896022
-0.00111702
0.000666827
3.70932e-06
-2.47099e-06
1.63369e-05
-3.39533e-05
3.99992e-05
-9.16199e-05
7.69578e-05
-0.000176358
0.000129665
-0.000289256
0.000200826
-0.000431515
0.000293563
-0.000604461
0.000411789
-0.000809085
0.000560781
-0.00104501
-0.0013032
0.000746966
4.47785e-06
-6.94884e-06
1.93051e-05
-4.87806e-05
4.66561e-05
-0.000118971
8.88731e-05
-0.000218575
0.000148497
-0.000348879
0.0002283
-0.000511318
0.000331411
-0.000707573
0.00046175
-0.000939423
0.00062493
-0.00120819
-0.00150752
0.000829249
5.28691e-06
-1.22358e-05
2.24143e-05
-6.5908e-05
5.36173e-05
-0.000150174
0.000101334
-0.000266292
0.00016822
-0.000415765
0.000257141
-0.000600239
0.000371216
-0.000821648
0.000514202
-0.00108241
0.00069156
-0.00138555
-0.00172918
0.000913215
6.12783e-06
-1.83636e-05
2.56309e-05
-8.5411e-05
6.0809e-05
-0.000185352
0.000114216
-0.000319698
0.000188663
-0.000490213
0.000287181
-0.000698757
0.000412953
-0.00094742
0.000569472
-0.00123893
0.000761201
-0.00157728
-0.001967
0.000999027
6.98842e-06
-2.5352e-05
2.89093e-05
-0.000107332
6.81292e-05
-0.000224572
0.000127335
-0.000378904
0.000209548
-0.000572426
0.000318088
-0.000807298
0.000456471
-0.0010858
0.000628211
-0.00141067
0.00083553
-0.0017846
-0.00221959
0.00108811
7.85333e-06
-3.32053e-05
3.21929e-05
-0.000131671
7.54476e-05
-0.000267827
0.000140444
-0.000443901
0.000230452
-0.000662433
0.00034923
-0.000926076
0.000501103
-0.00123767
0.000690991
-0.00160056
0.000921025
-0.00201463
-0.00247972
0.00118116
8.70555e-06
-4.19109e-05
3.54183e-05
-0.000158384
8.26154e-05
-0.000315024
0.000153244
-0.00051453
0.000250805
-0.000759994
0.000379523
-0.00105479
0.000544739
-0.00140289
0.000754028
-0.00180985
0.00102331
-0.00228392
-0.00286501
0.0014086
9.52726e-06
-5.14381e-05
3.85207e-05
-0.000187378
8.94791e-05
-0.000365982
0.000165419
-0.00059047
0.000269975
-0.00086455
0.000407611
-0.00119243
0.000584082
-0.00157936
0.000807457
-0.00203322
0.00109116
-0.00256762
-0.00322
0.00144615
1.03038e-05
-6.1742e-05
4.14452e-05
-0.000218519
9.59097e-05
-0.000420446
0.000176713
-0.000671273
0.000287476
-0.000975313
0.000432587
-0.00133754
0.000617465
-0.00176424
0.000848774
-0.00226453
0.0011343
-0.00285314
-0.00355881
0.00147311
1.10244e-05
-7.27664e-05
4.41509e-05
-0.000251646
0.000101814
-0.00047811
0.000186952
-0.000756411
0.000303037
-0.0010914
0.000454126
-0.00148863
0.00064486
-0.00195497
0.000880048
-0.00249972
0.00116318
-0.00313628
-0.00388495
0.00148932
1.16827e-05
-8.4449e-05
4.66131e-05
-0.000286576
0.000107139
-0.000538635
0.000196054
-0.000845326
0.000316573
-0.00121192
0.000472268
-0.00164433
0.000666848
-0.00214955
0.000903419
-0.00273629
0.00118271
-0.00341557
-0.00420058
0.00149834
1.22765e-05
-9.67255e-05
4.88214e-05
-0.000323121
0.000111863
-0.000601677
0.000204
-0.000937463
0.000328116
-0.00133603
0.000487226
-0.00180344
0.000684108
-0.00234644
0.000920461
-0.00297264
0.00119529
-0.0036904
-0.00450727
0.00150198
1.28069e-05
-0.000109532
5.07764e-05
-0.00036109
0.000115991
-0.000666892
0.000210814
-0.00103229
0.000337759
-0.00146298
0.000499262
-0.00196494
0.000697247
-0.00254442
0.000932293
-0.00320769
0.00120234
-0.00396045
-0.00480584
0.00150092
1.32764e-05
-0.000122809
5.24844e-05
-0.000400298
0.000119538
-0.000733945
0.000216539
-0.00112929
0.00034561
-0.00159205
0.000508622
-0.00212795
0.000706735
-0.00274254
0.000939651
-0.0034406
0.00120461
-0.00422541
-0.00509658
0.00149535
1.36883e-05
-0.000136497
5.39543e-05
-0.000440564
0.000122524
-0.000802516
0.00022122
-0.00122798
0.000351766
-0.00172259
0.000515495
-0.00229168
0.000712894
-0.00293993
0.000942959
-0.00367067
0.00120245
-0.0044849
-0.00537937
0.00148524
1.40453e-05
-0.000150543
5.51932e-05
-0.000481712
0.000124965
-0.000872288
0.00022489
-0.00132791
0.000356295
-0.001854
0.000520002
-0.00245539
0.000715902
-0.00313583
0.000942406
-0.00389717
0.0011959
-0.00473839
-0.00565382
0.00147034
1.4349e-05
-0.000164891
5.62052e-05
-0.000523568
0.000126869
-0.000942952
0.000227567
-0.00142861
0.000359231
-0.00198566
0.0005222
-0.00261836
0.000715825
-0.00332946
0.000938018
-0.00411936
0.00118485
-0.00498522
-0.0059193
0.00145033
1.45993e-05
-0.000179491
5.69895e-05
-0.000565959
0.000128235
-0.0010142
0.00022925
-0.00152962
0.000360575
-0.00211699
0.000522087
-0.00277987
0.000712644
-0.00352002
0.000929716
-0.00433644
0.0011691
-0.00522461
-0.00617501
0.00142481
1.47948e-05
-0.000194286
5.75408e-05
-0.000608705
0.00012905
-0.00108571
0.000229918
-0.00163049
0.000360297
-0.00224737
0.000519618
-0.00293919
0.000706281
-0.00370668
0.000917358
-0.00454751
0.0011484
-0.00545565
-0.00642003
0.00139343
1.49327e-05
-0.000209218
5.78491e-05
-0.000651621
0.000129295
-0.00115715
0.00022954
-0.00173073
0.000358347
-0.00237617
0.00051472
-0.00309556
0.000696627
-0.00388859
0.000900777
-0.00475166
0.00112251
-0.00567739
-0.00665336
0.00135584
1.50088e-05
-0.000224227
5.79011e-05
-0.000694513
0.000128944
-0.0012282
0.000228071
-0.00182986
0.000354662
-0.00250276
0.000507302
-0.0032482
0.000683558
-0.00406484
0.000879806
-0.00494791
0.00109121
-0.00588879
-0.00687395
0.00131179
1.50183e-05
-0.000239245
5.7681e-05
-0.000737176
0.000127965
-0.00129848
0.000225462
-0.00192736
0.00034917
-0.00262647
0.000497274
-0.00339631
0.000666957
-0.00423453
0.000854302
-0.00513525
0.00105432
-0.00608881
-0.00708073
0.00126111
1.49558e-05
-0.000254201
5.7172e-05
-0.000779392
0.000126325
-0.00136763
0.000221663
-0.0020227
0.000341805
-0.00274661
0.000484549
-0.00353905
0.000646725
-0.0043967
0.000824157
-0.00531269
0.00101175
-0.0062764
-0.00727267
0.00120369
1.48158e-05
-0.000269017
5.63569e-05
-0.000820933
0.000123992
-0.00143527
0.000216627
-0.00211533
0.000332505
-0.00286249
0.000469057
-0.0036756
0.000622791
-0.00455044
0.000789309
-0.0054792
0.000963453
-0.00645054
-0.00744877
0.00113955
1.4593e-05
-0.00028361
5.52198e-05
-0.00086156
0.000120939
-0.00150099
0.000210312
-0.0022047
0.000321222
-0.0029734
0.000450751
-0.00380513
0.000595119
-0.00469481
0.00074975
-0.00563383
0.000909472
-0.00661027
-0.00760811
0.00106881
1.42827e-05
-0.000297893
5.37468e-05
-0.000901024
0.000117141
-0.00156438
0.000202689
-0.00229025
0.000307926
-0.00307864
0.000429611
-0.00392682
0.000563712
-0.00482891
0.000705525
-0.00577565
0.000849915
-0.00675466
-0.00774984
0.000991647
1.38828e-05
-0.000311776
5.19308e-05
-0.000939072
0.000112587
-0.00162504
0.000193746
-0.00237141
0.000292613
-0.00317751
0.000405655
-0.00403986
0.000528629
-0.00495188
0.000656748
-0.00590377
0.000784973
-0.00688288
-0.00787323
0.000908358
1.33865e-05
-0.000325162
4.97568e-05
-0.000975442
0.000107257
-0.00168254
0.000183465
-0.00244762
0.00027528
-0.00326932
0.000378908
-0.00414348
0.000489936
-0.00506291
0.000603553
-0.00601738
0.000714864
-0.00699419
-0.00797762
0.000819263
1.27936e-05
-0.000337956
4.72252e-05
-0.00100987
0.000101155
-0.00173647
0.000171865
-0.00251833
0.000255971
-0.00335343
0.000349453
-0.00423697
0.000447777
-0.00516123
0.000546158
-0.00611576
0.000639901
-0.00708794
-0.00806251
0.000724784
1.21035e-05
-0.000350059
4.43372e-05
-0.00104211
9.42929e-05
-0.00178642
0.000158974
-0.00258301
0.000234747
-0.0034292
0.000317401
-0.00431962
0.000402327
-0.00524616
0.000484817
-0.00619825
0.000560431
-0.00716355
-0.00812745
0.000625377
1.13168e-05
-0.000361376
4.10989e-05
-0.00107189
8.66891e-05
-0.00183201
0.00014484
-0.00264116
0.000211694
-0.00349606
0.000282893
-0.00439082
0.000353798
-0.00531706
0.000419828
-0.00626428
0.000476846
-0.00722057
-0.00817215
0.000521539
1.04356e-05
-0.000371812
3.75214e-05
-0.00109898
7.83746e-05
-0.00187287
0.000129523
-0.00269231
0.000186923
-0.00355346
0.000246105
-0.00445
0.000302441
-0.0053734
0.000351526
-0.00631337
0.000389573
-0.00725861
-0.00819636
0.000413791
9.46323e-06
-0.000381275
3.36208e-05
-0.00112313
6.93904e-05
-0.00190864
0.000113106
-0.00273602
0.000160571
-0.00360092
0.000207242
-0.00449667
0.000248543
-0.0054147
0.000280283
-0.00634511
0.000299068
-0.0072774
-0.00819997
0.00030267
8.40482e-06
-0.00038968
2.94183e-05
-0.00114415
5.97876e-05
-0.00193901
9.56857e-05
-0.00277192
0.000132797
-0.00363803
0.00016654
-0.00453042
0.000192423
-0.00544058
0.000206501
-0.00635919
0.000205804
-0.0072767
-0.00818288
0.000188719
7.26673e-06
-0.000396946
2.494e-05
-0.00116182
4.9627e-05
-0.00196369
7.73737e-05
-0.00279967
0.000103781
-0.00366444
0.000124261
-0.0045509
0.000134435
-0.00545076
0.000130628
-0.00635538
0.000110272
-0.00725635
-0.00814498
7.23698e-05
6.05663e-06
-0.000403003
2.02158e-05
-0.00117598
3.89778e-05
-0.00198246
5.82964e-05
-0.00281899
7.37235e-05
-0.00367987
8.06943e-05
-0.00455787
7.49538e-05
-0.00544502
5.31408e-05
-0.00633357
1.34508e-05
-0.00721666
-0.00808585
-4.56831e-05
4.78333e-06
-0.000407786
1.52797e-05
-0.00118648
2.79162e-05
-0.00199509
3.85914e-05
-0.00282966
4.28424e-05
-0.00368412
3.61487e-05
-0.00455117
1.43859e-05
-0.00542325
-2.55691e-05
-0.00629361
-8.52964e-05
-0.00715693
-0.00800686
-0.000164285
3.45651e-06
-0.000411243
1.0168e-05
-0.00119319
1.65237e-05
-0.00200145
1.84048e-05
-0.00283154
1.13679e-05
-0.00367708
-9.04331e-06
-0.00453076
-4.68314e-05
-0.00538546
-0.00010489
-0.00623555
-0.000184321
-0.0070775
-0.00790736
-0.000283819
2.08653e-06
-0.000413329
4.91885e-06
-0.00119602
4.88455e-06
-0.00200141
-2.11252e-06
-0.00282455
-2.0462e-05
-0.00365873
-5.45371e-05
-0.00449669
-0.000108234
-0.00533177
-0.000184278
-0.00615951
-0.000283377
-0.0069784
-0.00778736
-0.000403375
6.8519e-07
-0.000414015
-4.31303e-07
-0.0011949
-6.91725e-06
-0.00199493
-2.28111e-05
-0.00280865
-5.24079e-05
-0.00362913
-9.99791e-05
-0.00444912
-0.000169339
-0.00526241
-0.000263139
-0.00606571
-0.000381851
-0.00685969
-0.00764681
-0.000522402
-7.46575e-07
-0.000413268
-5.84159e-06
-0.00118981
-1.88002e-05
-0.00198197
-4.35457e-05
-0.00278391
-8.42382e-05
-0.00358844
-0.000145021
-0.00438833
-0.000229649
-0.00517778
-0.000340825
-0.00595453
-0.00047905
-0.00672146
-0.00748551
-0.000640347
-2.18447e-06
-0.000411083
-1.12816e-05
-0.00118071
-3.06901e-05
-0.00196256
-6.41842e-05
-0.00275041
-0.00011574
-0.00353689
-0.000189332
-0.00431474
-0.000288662
-0.00507845
-0.000416629
-0.00582657
-0.000574174
-0.00656392
-0.00730302
-0.000756664
-3.63007e-06
-0.000407453
-1.67195e-05
-0.00116762
-4.25214e-05
-0.00193676
-8.46124e-05
-0.00270832
-0.00014673
-0.00347477
-0.00023262
-0.00422885
-0.000345901
-0.00496517
-0.00048979
-0.00568268
-0.000666272
-0.00638744
-0.00709852
-0.000870779
-5.07441e-06
-0.000402379
-2.21298e-05
-0.00115057
-5.424e-05
-0.00190465
-0.000104739
-0.00265782
-0.000177067
-0.00340244
-0.00027466
-0.00413126
-0.000400951
-0.00483888
-0.000559509
-0.00552412
-0.000754113
-0.00619283
-0.00687091
-0.000981718
-6.51147e-06
-0.000395867
-2.74911e-05
-0.00112959
-6.5803e-05
-0.00186634
-0.0001245
-0.00259913
-0.000206666
-0.00332027
-0.000315324
-0.0040226
-0.000453526
-0.00470068
-0.000624944
-0.0053527
-0.000835564
-0.00598221
-0.00661809
-0.00108839
-7.93626e-06
-0.000387931
-3.27854e-05
-0.00110474
-7.71774e-05
-0.00182194
-0.000143853
-0.00253245
-0.000235498
-0.00322863
-0.00035463
-0.00390347
-0.00050366
-0.00455165
-0.00068557
-0.00517079
-0.000907338
-0.00576044
-0.00633282
-0.00119261
-9.34168e-06
-0.00037859
-3.7992e-05
-0.00107609
-8.83287e-05
-0.00177161
-0.000162764
-0.00245802
-0.00026357
-0.00312782
-0.000392738
-0.0037743
-0.000551944
-0.00439244
-0.000742648
-0.00498009
-0.000964695
-0.0055384
-0.00607597
-0.00122154
-1.07274e-05
-0.000367862
-4.31027e-05
-0.00104371
-9.92386e-05
-0.00171547
-0.000181214
-0.00237604
-0.000290905
-0.00301813
-0.000429844
-0.00363536
-0.000599165
-0.00422312
-0.000799679
-0.00477957
-0.00103169
-0.00530638
-0.00580746
-0.00130021
-1.20851e-05
-0.000355777
-4.80928e-05
-0.0010077
-0.000109863
-0.0016537
-0.000199142
-0.00228676
-0.000317431
-0.00289984
-0.000465868
-0.00348692
-0.000645214
-0.00404377
-0.000856014
-0.00456877
-0.0010989
-0.0050635
-0.00552989
-0.00137647
-1.34081e-05
-0.000342369
-5.29394e-05
-0.000968172
-0.000120155
-0.00158649
-0.000216472
-0.00219044
-0.000343029
-0.00277329
-0.000500599
-0.00332935
-0.000689612
-0.00385476
-0.000910312
-0.00434807
-0.00116305
-0.00481076
-0.00524409
-0.00144885
-1.46891e-05
-0.00032768
-5.7618e-05
-0.000925244
-0.000130065
-0.00151404
-0.00023312
-0.00208739
-0.000367564
-0.00263884
-0.000533814
-0.0031631
-0.000731957
-0.00365662
-0.000961878
-0.00411815
-0.00122345
-0.00454918
-0.00495096
-0.00151658
-1.59205e-05
-0.000311759
-6.21034e-05
-0.000879061
-0.000139544
-0.0014366
-0.000249002
-0.00197793
-0.00039091
-0.00249694
-0.000565327
-0.00298869
-0.000771984
-0.00344996
-0.00101038
-0.00387976
-0.0012799
-0.00427967
-0.00465123
-0.00157963
-1.70952e-05
-0.000294664
-6.6372e-05
-0.000829784
-0.000148543
-0.00135443
-0.000264044
-0.00186243
-0.000412959
-0.00234802
-0.000594994
-0.00280665
-0.00080952
-0.00323543
-0.00105566
-0.00363362
-0.00133234
-0.00400298
-0.00434545
-0.00163813
-1.82065e-05
-0.000276458
-7.04022e-05
-0.000777588
-0.00015702
-0.00126781
-0.000278181
-0.00174127
-0.000433625
-0.00219258
-0.000622712
-0.00261756
-0.000844466
-0.00301368
-0.00109765
-0.00338044
-0.00138084
-0.00371979
-0.00403405
-0.00169224
-1.92488e-05
-0.000257209
-7.41751e-05
-0.000722662
-0.000164941
-0.00117704
-0.000291359
-0.00161485
-0.00045284
-0.0020311
-0.000648411
-0.00242199
-0.000876769
-0.00278532
-0.00113636
-0.00312084
-0.00142548
-0.00343067
-0.00371742
-0.0017421
-2.02171e-05
-0.000236992
-7.76748e-05
-0.000665204
-0.000172276
-0.00108244
-0.000303536
-0.00148359
-0.000470555
-0.00186408
-0.000672046
-0.0022205
-0.000906405
-0.00255096
-0.00117181
-0.00285544
-0.00146631
-0.00313617
-0.00339593
-0.00178781
-2.11073e-05
-0.000215884
-8.08881e-05
-0.000605424
-0.000178999
-0.000984331
-0.000314679
-0.00134791
-0.000486733
-0.00169202
-0.000693586
-0.00201365
-0.000933364
-0.00231118
-0.00120401
-0.0025848
-0.00150342
-0.00283676
-0.00306992
-0.00182942
-2.19161e-05
-0.000193968
-8.38041e-05
-0.000543536
-0.000185093
-0.000883043
-0.000324761
-0.00120824
-0.000501347
-0.00151544
-0.000713012
-0.00180198
-0.000957643
-0.00206655
-0.00123299
-0.00230945
-0.00153682
-0.00253292
-0.00273977
-0.00186698
-2.26406e-05
-0.000171328
-8.6414e-05
-0.000479762
-0.00019054
-0.000778917
-0.000333763
-0.00106502
-0.000514378
-0.00133482
-0.00073031
-0.00158605
-0.000979242
-0.00181762
-0.00125876
-0.00202994
-0.00156656
-0.00222512
-0.00240586
-0.00190047
-2.32787e-05
-0.000148049
-8.87108e-05
-0.00041433
-0.000195329
-0.000672299
-0.000341669
-0.000918678
-0.000525808
-0.00115068
-0.00074547
-0.00136639
-0.000998157
-0.00156493
-0.00128133
-0.00174676
-0.00159262
-0.00191383
-0.0020686
-0.00192988
-2.38286e-05
-0.00012422
-9.06889e-05
-0.00034747
-0.00019945
-0.000563537
-0.000348466
-0.000769663
-0.000535627
-0.000963523
-0.000758482
-0.00114353
-0.00101439
-0.00130903
-0.0013007
-0.00146045
-0.001615
-0.00159953
-0.00172841
-0.00195519
-2.42889e-05
-9.99314e-05
-9.23436e-05
-0.000279415
-0.000202896
-0.000452985
-0.000354144
-0.000618414
-0.000543825
-0.000773843
-0.00076934
-0.00091802
-0.00102793
-0.00105044
-0.00131686
-0.00117152
-0.00163369
-0.00128269
-0.00138575
-0.00197635
-2.46584e-05
-7.5273e-05
-9.36714e-05
-0.000210402
-0.000205659
-0.000340997
-0.000358696
-0.000465377
-0.000550392
-0.000582147
-0.000778035
-0.000690377
-0.00103877
-0.000789711
-0.0013298
-0.000880484
-0.00164868
-0.000963817
-0.00104109
-0.00199334
-2.49363e-05
-5.03366e-05
-9.46696e-05
-0.000140669
-0.000207735
-0.000227931
-0.000362115
-0.000310998
-0.000555323
-0.000388938
-0.000784562
-0.000461138
-0.0010469
-0.000527369
-0.00133952
-0.000587869
-0.00165993
-0.000643403
-0.000694909
-0.00200611
-2.51219e-05
-2.52148e-05
-9.5336e-05
-7.04548e-05
-0.000209122
-0.000114146
-0.000364397
-0.000155723
-0.000558614
-0.000194721
-0.000788916
-0.000230835
-0.00105233
-0.000263953
-0.001346
-0.000294199
-0.00166745
-0.00032196
-0.00034771
-0.00201465
-2.52148e-05
-2.00183e-12
-9.56696e-05
-5.41413e-12
-0.000209815
-8.56326e-12
-0.000365538
-1.15172e-11
-0.000560259
-1.42297e-11
-0.000791094
-1.66746e-11
-0.00105505
-1.87843e-11
-0.00134925
-2.05126e-11
-0.00167121
-2.18231e-11
-2.27716e-11
-0.00201892
-2.52148e-05
2.52147e-05
-9.56696e-05
7.04548e-05
-0.000209815
0.000114146
-0.000365538
0.000155723
-0.000560259
0.000194721
-0.000791094
0.000230835
-0.00105505
0.000263953
-0.00134925
0.000294199
-0.00167121
0.00032196
0.00034771
-0.00201892
-2.51219e-05
5.03366e-05
-9.5336e-05
0.000140669
-0.000209122
0.000227931
-0.000364397
0.000310998
-0.000558614
0.000388938
-0.000788916
0.000461138
-0.00105233
0.000527369
-0.001346
0.000587869
-0.00166745
0.000643403
0.000694909
-0.00201465
-2.49363e-05
7.5273e-05
-9.46696e-05
0.000210402
-0.000207735
0.000340997
-0.000362115
0.000465377
-0.000555323
0.000582147
-0.000784562
0.000690377
-0.0010469
0.000789711
-0.00133952
0.000880484
-0.00165993
0.000963817
0.00104109
-0.00200611
-2.46584e-05
9.99314e-05
-9.36714e-05
0.000279415
-0.000205659
0.000452985
-0.000358696
0.000618414
-0.000550392
0.000773843
-0.000778035
0.00091802
-0.00103877
0.00105044
-0.0013298
0.00117152
-0.00164868
0.00128269
0.00138575
-0.00199334
-2.42889e-05
0.00012422
-9.23436e-05
0.00034747
-0.000202896
0.000563537
-0.000354144
0.000769663
-0.000543825
0.000963523
-0.00076934
0.00114353
-0.00102793
0.00130903
-0.00131686
0.00146045
-0.00163369
0.00159953
0.00172841
-0.00197635
-2.38286e-05
0.000148049
-9.06889e-05
0.00041433
-0.00019945
0.000672299
-0.000348466
0.000918678
-0.000535627
0.00115068
-0.000758482
0.00136639
-0.00101439
0.00156493
-0.0013007
0.00174676
-0.001615
0.00191383
0.0020686
-0.00195519
-2.32787e-05
0.000171328
-8.87108e-05
0.000479762
-0.000195329
0.000778917
-0.000341669
0.00106502
-0.000525808
0.00133482
-0.00074547
0.00158605
-0.000998157
0.00181762
-0.00128133
0.00202994
-0.00159262
0.00222512
0.00240586
-0.00192988
-2.26406e-05
0.000193968
-8.6414e-05
0.000543536
-0.00019054
0.000883043
-0.000333763
0.00120824
-0.000514378
0.00151544
-0.00073031
0.00180198
-0.000979242
0.00206655
-0.00125876
0.00230945
-0.00156656
0.00253292
0.00273977
-0.00190047
-2.19161e-05
0.000215884
-8.38041e-05
0.000605424
-0.000185093
0.000984331
-0.000324761
0.00134791
-0.000501347
0.00169202
-0.000713012
0.00201365
-0.000957643
0.00231118
-0.00123299
0.0025848
-0.00153682
0.00283676
0.00306992
-0.00186698
-2.11073e-05
0.000236992
-8.08881e-05
0.000665204
-0.000178999
0.00108244
-0.000314679
0.00148359
-0.000486733
0.00186408
-0.000693586
0.0022205
-0.000933364
0.00255096
-0.00120401
0.00285544
-0.00150342
0.00313617
0.00339593
-0.00182942
-2.02171e-05
0.000257209
-7.76748e-05
0.000722662
-0.000172276
0.00117704
-0.000303536
0.00161485
-0.000470555
0.0020311
-0.000672046
0.00242199
-0.000906405
0.00278532
-0.00117181
0.00312084
-0.00146631
0.00343067
0.00371742
-0.00178781
-1.92488e-05
0.000276458
-7.41751e-05
0.000777588
-0.000164941
0.00126781
-0.000291359
0.00174127
-0.00045284
0.00219258
-0.000648411
0.00261756
-0.000876769
0.00301368
-0.00113636
0.00338044
-0.00142548
0.00371979
0.00403405
-0.0017421
-1.82065e-05
0.000294664
-7.04022e-05
0.000829784
-0.00015702
0.00135443
-0.000278181
0.00186243
-0.000433625
0.00234802
-0.000622712
0.00280665
-0.000844466
0.00323543
-0.00109765
0.00363362
-0.00138084
0.00400298
0.00434545
-0.00169224
-1.70952e-05
0.000311759
-6.6372e-05
0.000879061
-0.000148543
0.0014366
-0.000264044
0.00197793
-0.000412959
0.00249694
-0.000594994
0.00298869
-0.00080952
0.00344996
-0.00105566
0.00387976
-0.00133234
0.00427967
0.00465123
-0.00163813
-1.59205e-05
0.00032768
-6.21034e-05
0.000925244
-0.000139544
0.00151404
-0.000249002
0.00208739
-0.00039091
0.00263884
-0.000565327
0.0031631
-0.000771984
0.00365662
-0.00101038
0.00411815
-0.0012799
0.00454918
0.00495096
-0.00157963
-1.46891e-05
0.000342369
-5.7618e-05
0.000968172
-0.000130065
0.00158649
-0.00023312
0.00219044
-0.000367564
0.00277329
-0.000533815
0.00332935
-0.000731957
0.00385476
-0.000961878
0.00434807
-0.00122345
0.00481076
0.00524409
-0.00151658
-1.34081e-05
0.000355777
-5.29394e-05
0.0010077
-0.000120155
0.0016537
-0.000216472
0.00228676
-0.000343029
0.00289984
-0.000500599
0.00348692
-0.000689612
0.00404377
-0.000910312
0.00456877
-0.00116305
0.0050635
0.00552989
-0.00144885
-1.20851e-05
0.000367862
-4.80928e-05
0.00104371
-0.000109863
0.00171547
-0.000199142
0.00237604
-0.000317431
0.00301813
-0.000465868
0.00363536
-0.000645214
0.00422312
-0.000856014
0.00477957
-0.0010989
0.00530638
0.00580746
-0.00137647
-1.07274e-05
0.00037859
-4.31027e-05
0.00107609
-9.92386e-05
0.00177161
-0.000181214
0.00245802
-0.000290905
0.00312782
-0.000429844
0.0037743
-0.000599165
0.00439244
-0.000799679
0.00498009
-0.00103169
0.0055384
0.00607597
-0.00130021
-9.34168e-06
0.000387931
-3.7992e-05
0.00110474
-8.83287e-05
0.00182194
-0.000162764
0.00253245
-0.00026357
0.00322863
-0.000392738
0.00390347
-0.000551944
0.00455165
-0.000742648
0.00517079
-0.000964695
0.00576044
0.00633282
-0.00122154
-7.93626e-06
0.000395867
-3.27854e-05
0.00112959
-7.71774e-05
0.00186634
-0.000143853
0.00259913
-0.000235498
0.00332027
-0.00035463
0.0040226
-0.00050366
0.00470068
-0.00068557
0.0053527
-0.000907338
0.00598221
0.00661809
-0.00119261
-6.51147e-06
0.000402379
-2.74911e-05
0.00115057
-6.5803e-05
0.00190465
-0.0001245
0.00265782
-0.000206666
0.00340244
-0.000315324
0.00413126
-0.000453526
0.00483888
-0.000624944
0.00552412
-0.000835564
0.00619283
0.00687091
-0.00108839
-5.07441e-06
0.000407453
-2.21298e-05
0.00116762
-5.424e-05
0.00193676
-0.000104739
0.00270832
-0.000177067
0.00347477
-0.00027466
0.00422885
-0.000400951
0.00496517
-0.000559509
0.00568268
-0.000754114
0.00638744
0.00709852
-0.000981718
-3.63007e-06
0.000411083
-1.67195e-05
0.00118071
-4.25214e-05
0.00196256
-8.46124e-05
0.00275041
-0.00014673
0.00353689
-0.00023262
0.00431474
-0.000345901
0.00507845
-0.00048979
0.00582657
-0.000666272
0.00656392
0.00730302
-0.000870779
-2.18447e-06
0.000413268
-1.12816e-05
0.00118981
-3.06901e-05
0.00198197
-6.41842e-05
0.00278391
-0.00011574
0.00358844
-0.000189332
0.00438833
-0.000288662
0.00517778
-0.000416629
0.00595453
-0.000574174
0.00672146
0.00748551
-0.000756664
-7.46575e-07
0.000414015
-5.8416e-06
0.0011949
-1.88002e-05
0.00199493
-4.35457e-05
0.00280865
-8.42383e-05
0.00362913
-0.000145021
0.00444912
-0.000229649
0.00526241
-0.000340825
0.00606571
-0.00047905
0.00685969
0.00764681
-0.000640347
6.8519e-07
0.000413329
-4.31304e-07
0.00119602
-6.91725e-06
0.00200141
-2.28111e-05
0.00282455
-5.24079e-05
0.00365873
-9.99791e-05
0.00449669
-0.000169339
0.00533177
-0.000263139
0.00615951
-0.000381851
0.0069784
0.00778736
-0.000522402
2.08653e-06
0.000411243
4.91885e-06
0.00119319
4.88455e-06
0.00200145
-2.11252e-06
0.00283154
-2.0462e-05
0.00367708
-5.45372e-05
0.00453076
-0.000108234
0.00538546
-0.000184278
0.00623555
-0.000283377
0.0070775
0.00790736
-0.000403375
3.45651e-06
0.000407786
1.0168e-05
0.00118648
1.65237e-05
0.00199509
1.84048e-05
0.00282966
1.13679e-05
0.00368412
-9.04332e-06
0.00455117
-4.68315e-05
0.00542325
-0.00010489
0.00629361
-0.000184321
0.00715693
0.00800686
-0.000283819
4.78333e-06
0.000403003
1.52797e-05
0.00117598
2.79162e-05
0.00198246
3.85914e-05
0.00281899
4.28424e-05
0.00367987
3.61487e-05
0.00455787
1.43859e-05
0.00544502
-2.55691e-05
0.00633357
-8.52965e-05
0.00721666
0.00808585
-0.000164285
6.05663e-06
0.000396946
2.02158e-05
0.00116182
3.89778e-05
0.00196369
5.82964e-05
0.00279967
7.37235e-05
0.00366444
8.06943e-05
0.0045509
7.49538e-05
0.00545076
5.31408e-05
0.00635538
1.34508e-05
0.00725635
0.00814498
-4.56831e-05
7.26673e-06
0.00038968
2.494e-05
0.00114415
4.9627e-05
0.00193901
7.73737e-05
0.00277192
0.000103781
0.00363803
0.000124261
0.00453042
0.000134435
0.00544058
0.000130628
0.00635919
0.000110272
0.0072767
0.00818288
7.23698e-05
8.40482e-06
0.000381275
2.94183e-05
0.00112313
5.97876e-05
0.00190864
9.56857e-05
0.00273602
0.000132797
0.00360092
0.00016654
0.00449667
0.000192423
0.0054147
0.000206501
0.00634511
0.000205804
0.0072774
0.00819997
0.000188719
9.46323e-06
0.000371812
3.36208e-05
0.00109898
6.93904e-05
0.00187287
0.000113106
0.00269231
0.000160571
0.00355346
0.000207242
0.00445
0.000248543
0.0053734
0.000280283
0.00631337
0.000299068
0.00725861
0.00819636
0.00030267
1.04356e-05
0.000361376
3.75214e-05
0.00107189
7.83746e-05
0.00183201
0.000129523
0.00264116
0.000186923
0.00349606
0.000246105
0.00439082
0.000302441
0.00531706
0.000351526
0.00626428
0.000389573
0.00722057
0.00817215
0.000413791
1.13168e-05
0.000350059
4.10989e-05
0.00104211
8.66891e-05
0.00178642
0.00014484
0.00258301
0.000211694
0.0034292
0.000282893
0.00431962
0.000353798
0.00524616
0.000419828
0.00619825
0.000476846
0.00716355
0.00812745
0.000521539
1.21035e-05
0.000337956
4.43372e-05
0.00100987
9.42929e-05
0.00173647
0.000158974
0.00251833
0.000234747
0.00335343
0.000317401
0.00423697
0.000402327
0.00516123
0.000484817
0.00611576
0.000560431
0.00708794
0.00806251
0.000625377
1.27936e-05
0.000325162
4.72252e-05
0.000975442
0.000101155
0.00168254
0.000171865
0.00244762
0.000255971
0.00326932
0.000349453
0.00414348
0.000447777
0.00506291
0.000546158
0.00601738
0.000639901
0.00699419
0.00797762
0.000724784
1.33865e-05
0.000311776
4.97568e-05
0.000939072
0.000107257
0.00162504
0.000183465
0.00237141
0.00027528
0.00317751
0.000378908
0.00403986
0.000489936
0.00495188
0.000603553
0.00590377
0.000714864
0.00688288
0.00787323
0.000819263
1.38828e-05
0.000297893
5.19308e-05
0.000901024
0.000112587
0.00156438
0.000193746
0.00229025
0.000292613
0.00307864
0.000405655
0.00392682
0.000528629
0.00482891
0.000656748
0.00577565
0.000784973
0.00675466
0.00774984
0.000908358
1.42827e-05
0.00028361
5.37468e-05
0.00086156
0.000117141
0.00150099
0.000202689
0.0022047
0.000307926
0.0029734
0.000429611
0.00380513
0.000563712
0.00469481
0.000705525
0.00563383
0.000849915
0.00661027