/*--------------------------------*- C++ -*----------------------------------*\
  =========                 |
  \\      /  F ield         | OpenFOAM: The Open Source CFD Toolbox
   \\    /   O peration     | Website:  https://openfoam.org
    \\  /    A nd           | Version:  7
     \\/     M anipulation  |
\*---------------------------------------------------------------------------*/
FoamFile
{
    version     2.0;
    format      ascii;
    class       volVectorField;
    location    "15";
    object      U;
}
// * * * * * * * * * * * * * * * * * * * * * * * * * * * * * * * * * * * * * //

dimensions      [0 1 -1 0 0 0 0];

internalField   nonuniform List<vector> 
8500
(
(-0.000380987 0.000260227 -8.9514e-22)
(-0.00160167 0.000460399 8.50353e-21)
(-0.00331359 0.000432359 1.77101e-20)
(-0.00457119 0.000240886 -4.62196e-22)
(-0.00490522 -6.24024e-05 -6.68651e-21)
(-0.0040052 -0.000430863 -6.77216e-21)
(-0.00169748 -0.000821572 1.21799e-21)
(0.00203401 -0.00119381 2.01414e-20)
(0.00707462 -0.00151333 -1.15238e-20)
(0.013258 -0.00174241 4.21544e-21)
(-0.000413782 0.00077183 -1.40985e-20)
(-0.00162251 0.00135991 8.36966e-21)
(-0.00323711 0.00126833 -3.00388e-20)
(-0.00433482 0.000689997 -2.90073e-20)
(-0.00445659 -0.000220973 6.48225e-21)
(-0.00330041 -0.00132533 5.37069e-21)
(-0.000699555 -0.00249475 -7.90704e-21)
(0.00335373 -0.00360755 6.96872e-21)
(0.0087396 -0.00456025 1.44604e-20)
(0.0153217 -0.00523674 9.12734e-21)
(-0.000476844 0.00125706 -1.41141e-20)
(-0.00165786 0.00219601 -1.52522e-20)
(-0.00307516 0.00201871 1.53769e-20)
(-0.00385136 0.00104198 4.93954e-20)
(-0.00354773 -0.000479835 2.54834e-20)
(-0.00187905 -0.00231689 1.18116e-20)
(0.00130758 -0.00425697 -8.29956e-21)
(0.00600367 -0.0060984 -3.33356e-20)
(0.012079 -0.00766691 1.56142e-20)
(0.0194575 -0.00875871 -1.09173e-19)
(-0.000565154 0.0016989 -3.83655e-23)
(-0.00169508 0.00292787 4.45729e-21)
(-0.00280983 0.00262857 -3.05833e-20)
(-0.00309948 0.00123481 -1.76416e-20)
(-0.00215556 -0.000902628 -2.40164e-20)
(0.000282275 -0.00346673 -2.32557e-20)
(0.00434646 -0.00616397 6.70274e-20)
(0.0100047 -0.00871417 -4.74605e-20)
(0.0171117 -0.0108701 -6.46157e-20)
(0.0256819 -0.0123242 5.4356e-20)
(-0.000671268 0.00208121 2.19626e-20)
(-0.0017154 0.00351676 -1.48534e-20)
(-0.00241449 0.00304615 -4.00833e-21)
(-0.00204741 0.00121052 2.89978e-21)
(-0.000245661 -0.00154818 2.35249e-20)
(0.00321837 -0.00483062 4.56764e-20)
(0.00845052 -0.00826584 -1.79965e-20)
(0.0153877 -0.0114973 5.67072e-20)
(0.0238652 -0.0142022 5.48411e-20)
(0.0340193 -0.0159455 -3.54578e-20)
(-0.000785413 0.00238895 6.42711e-20)
(-0.00169412 0.00392684 -4.16514e-21)
(-0.00185398 0.00322399 3.87256e-20)
(-0.000653208 0.000916696 -3.45754e-20)
(0.00222736 -0.00246865 -7.70017e-20)
(0.00697512 -0.00645687 5.13632e-20)
(0.0136637 -0.0106048 1.17939e-19)
(0.0221933 -0.0144828 2.41615e-20)
(0.0323757 -0.017689 6.6655e-21)
(0.0445015 -0.0196296 3.81341e-20)
(-0.0008956 0.00260847 -1.15682e-19)
(-0.00160082 0.00412581 2.31191e-20)
(-0.001085 0.00312003 -1.5522e-20)
(0.00113485 0.000307992 -5.71276e-20)
(0.00531951 -0.00370775 2.55515e-21)
(0.0116091 -0.00838417 -1.90738e-19)
(0.02004 -0.0132127 -1.82021e-19)
(0.0304706 -0.0176954 -1.41616e-19)
(0.0426866 -0.0213478 8.20393e-20)
(0.0571669 -0.0233772 -7.73716e-21)
(-0.000987755 0.00272773 7.60948e-20)
(-0.00139972 0.00408555 -7.12093e-20)
(-5.64319e-05 0.00269859 4.2876e-20)
(0.0033778 -0.000652632 9.7407e-20)
(0.00909685 -0.00529908 -4.7574e-20)
(0.0171868 -0.0106396 3.86063e-20)
(0.0276428 -0.0161089 1.73442e-20)
(0.040277 -0.0211476 1.32778e-19)
(0.054848 -0.0251855 -1.2465e-20)
(0.0720594 -0.0271809 -3.60929e-20)
(-0.00104578 0.00273628 2.08336e-20)
(-0.00104997 0.00378268 8.2155e-20)
(0.00129006 0.0019312 -1.37001e-19)
(0.00614539 -0.00199271 6.97837e-20)
(0.0136349 -0.00726463 7.88566e-20)
(0.0237844 -0.0132366 1.38187e-19)
(0.0365437 -0.0192978 8.96249e-20)
(0.0516767 -0.0248368 1.11797e-19)
(0.0689152 -0.0291956 6.046e-21)
(0.0892272 -0.0310244 1.72908e-20)
(-0.00105168 0.00262569 -8.29871e-20)
(-0.000505982 0.00319883 -7.08757e-20)
(0.00301944 0.000797293 1.29863e-19)
(0.00951523 -0.00372931 -1.60124e-20)
(0.0190175 -0.00961351 -1.0806e-19)
(0.0314863 -0.0161736 3.45619e-20)
(0.0468224 -0.0227664 8.16342e-20)
(0.0647399 -0.0287419 -1.65544e-19)
(0.0849471 -0.0333561 1.21185e-19)
(0.108721 -0.0348805 8.41035e-20)
(-0.000985839 0.00238945 3.35768e-20)
(0.000282018 0.00232101 6.25619e-20)
(0.00520258 -0.000715218 2.14807e-19)
(0.0135719 -0.00586837 -1.77006e-19)
(0.0253364 -0.0123411 5.34981e-20)
(0.0403844 -0.0194322 7.72313e-20)
(0.0585649 -0.0264823 -6.29501e-20)
(0.0795416 -0.032821 1.65399e-19)
(0.103004 -0.0376254 -1.43454e-19)
(0.130591 -0.0387096 9.45929e-20)
(-0.000827006 0.00202298 8.17211e-21)
(0.00136742 0.00114208 -2.61275e-19)
(0.0079152 -0.00260955 -1.69022e-19)
(0.0184054 -0.00840431 1.42631e-19)
(0.0326889 -0.0154287 1.05239e-19)
(0.0505771 -0.022977 -2.33059e-20)
(0.0718632 -0.0303921 -1.05029e-19)
(0.0961604 -0.0370075 -3.17405e-20)
(0.123149 -0.041938 1.83803e-19)
(0.154886 -0.0424572 -2.49633e-20)
(-0.000552489 0.00152383 -1.12487e-19)
(0.00280654 -0.000339042 2.77914e-19)
(0.0112365 -0.00487984 5.08937e-20)
(0.0241099 -0.01132 -2.58296e-19)
(0.0411769 -0.0188436 4.58791e-20)
(0.0621673 -0.0267555 -3.02796e-19)
(0.0868139 -0.0344204 2.46306e-19)
(0.114678 -0.041207 -6.46162e-20)
(0.14544 -0.0461984 -4.09326e-19)
(0.181647 -0.0460489 -1.1951e-19)
(-0.000138451 0.000891903 4.07735e-20)
(0.00465765 -0.00211711 -1.78529e-19)
(0.0152476 -0.00751105 5.50021e-21)
(0.0307808 -0.0145874 5.52055e-20)
(0.0509038 -0.0225407 -2.87666e-19)
(0.0752604 -0.0306997 3.14064e-20)
(0.103517 -0.0384709 -3.63184e-19)
(0.135181 -0.0452949 -5.0498e-20)
(0.16994 -0.0502727 3.29907e-19)
(0.210905 -0.0493831 1.32444e-19)
(0.000439716 0.000129615 3.51342e-20)
(0.00697965 -0.00418017 8.57792e-20)
(0.0200292 -0.010479 7.90601e-21)
(0.0385123 -0.0181681 6.11404e-20)
(0.0619715 -0.0264639 1.99412e-19)
(0.0899617 -0.0347296 2.90435e-19)
(0.122076 -0.0424296 -1.26142e-20)
(0.157759 -0.0491158 2.46878e-20)
(0.196712 -0.0539794 -5.86226e-20)
(0.242682 -0.0523196 1.20325e-19)
(0.00120683 -0.000757749 -7.05463e-20)
(0.0098304 -0.00650916 9.59879e-20)
(0.0256586 -0.0137505 2.35833e-20)
(0.0473935 -0.0220146 1.51218e-19)
(0.0744759 -0.0305496 -1.48769e-19)
(0.106372 -0.0387586 -2.95158e-19)
(0.142594 -0.0461722 1.3578e-19)
(0.182513 -0.0524892 -6.85003e-20)
(0.225837 -0.0570843 -1.22775e-19)
(0.276996 -0.0546687 2.67218e-19)
(0.00218715 -0.00176163 1.42666e-19)
(0.0132647 -0.00907742 -1.28207e-19)
(0.0322071 -0.0172833 -3.3085e-21)
(0.0575036 -0.0260718 -2.06444e-20)
(0.088501 -0.0347304 1.6093e-19)
(0.12458 -0.0427012 2.47072e-19)
(0.165169 -0.0495771 -7.57562e-20)
(0.209552 -0.0552213 4.98703e-20)
(0.257419 -0.0592871 7.6645e-20)
(0.313873 -0.0561324 -3.84487e-19)
(0.0034034 -0.00286975 1.05541e-20)
(0.0173317 -0.0118502 3.44724e-19)
(0.0397352 -0.0210261 -2.65716e-20)
(0.068907 -0.0302777 -4.75014e-20)
(0.104112 -0.0389383 -1.57101e-19)
(0.144657 -0.0464828 1.79998e-19)
(0.189887 -0.0525453 -1.73704e-19)
(0.23899 -0.0571259 1.34834e-19)
(0.291574 -0.0601606 -3.6021e-20)
(0.353246 -0.0560639 2.49392e-19)
(0.0048756 -0.00406566 -1.93946e-19)
(0.0220727 -0.0147838 -2.51647e-19)
(0.0482896 -0.0249182 -1.44532e-19)
(0.0816465 -0.034564 3.49329e-19)
(0.121344 -0.0431084 -1.46479e-19)
(0.166638 -0.0500519 -1.12479e-19)
(0.216814 -0.0550359 -9.54319e-20)
(0.270992 -0.0580823 1.92866e-19)
(0.328543 -0.0591342 -4.53005e-19)
(0.3948 -0.0532182 2.9421e-19)
(0.00661991 -0.00532845 -1.99347e-20)
(0.027518 -0.0178258 1.98877e-20)
(0.0578986 -0.0288882 4.78511e-21)
(0.0957379 -0.0388539 -2.07711e-19)
(0.140194 -0.0471776 9.30336e-20)
(0.190505 -0.0533887 2.08e-20)
(0.245966 -0.057112 1.92419e-19)
(0.305817 -0.0582017 -2.43082e-19)
(0.369322 -0.0560671 2.53765e-19)
(0.439741 -0.0472112 -1.30892e-19)
(0.00864756 -0.00663271 -8.37589e-20)
(0.0336855 -0.0209137 -8.53628e-20)
(0.0685704 -0.0328528 1.31418e-19)
(0.111165 -0.0430588 1.10108e-19)
(0.160604 -0.0510753 -6.58894e-20)
(0.216141 -0.0564893 -1.1613e-19)
(0.277162 -0.0589417 -3.12719e-19)
(0.343365 -0.0580498 2.77131e-19)
(0.41524 -0.0525951 -1.90112e-19)
(0.497268 -0.042391 3.33467e-20)
(0.0109642 -0.00794877 -1.07023e-19)
(0.0405797 -0.0239761 2.35264e-19)
(0.0802917 -0.0367154 -2.2018e-19)
(0.127879 -0.0470711 -6.46741e-20)
(0.182464 -0.0547045 1.58677e-19)
(0.24332 -0.059308 -2.63302e-19)
(0.309912 -0.0606437 1.04182e-19)
(0.382254 -0.0584209 -3.7389e-20)
(0.461412 -0.0520926 1.41414e-19)
(0.549042 -0.046011 -5.75389e-19)
(0.0135696 -0.0092435 1.53082e-19)
(0.0481916 -0.0269333 2.50875e-20)
(0.0930307 -0.040366 5.46451e-20)
(0.145809 -0.0507614 -8.59143e-20)
(0.205634 -0.0579252 -2.25665e-19)
(0.271777 -0.061698 -1.70247e-19)
(0.343708 -0.0620404 1.23762e-19)
(0.42146 -0.0589236 5.18843e-20)
(0.505906 -0.0525194 2.09418e-19)
(0.59569 -0.0492721 3.85413e-20)
(0.0164582 -0.0104815 -1.29566e-19)
(0.0565003 -0.0296995 2.07958e-19)
(0.10674 -0.0436837 7.33807e-21)
(0.164867 -0.0539815 1.27398e-19)
(0.229965 -0.0605617 -2.05337e-20)
(0.301273 -0.0634383 5.87324e-20)
(0.378185 -0.0627923 1.16804e-19)
(0.460544 -0.0588595 -1.14053e-19)
(0.548675 -0.0522328 -6.14786e-20)
(0.63928 -0.0499739 6.0158e-19)
(0.0196198 -0.0116266 1.44249e-19)
(0.0654741 -0.0321861 3.28854e-20)
(0.12136 -0.0465416 1.23111e-19)
(0.184954 -0.0565721 9.31727e-21)
(0.255311 -0.0624207 5.23554e-20)
(0.331607 -0.0642833 1.6716e-19)
(0.413107 -0.0625533 -3.85517e-19)
(0.499372 -0.0576872 1.17424e-19)
(0.590136 -0.0505031 -8.22626e-20)
(0.681125 -0.0480816 -1.98256e-19)
(0.0230399 -0.012643 7.67071e-20)
(0.0750724 -0.0343044 -2.71729e-20)
(0.136819 -0.0488119 -5.60258e-20)
(0.205966 -0.0583724 -2.45286e-19)
(0.281531 -0.0633078 8.44933e-20)
(0.362608 -0.0639948 3.13081e-19)
(0.448309 -0.0610204 -3.1316e-20)
(0.537897 -0.0550166 7.06685e-20)
(0.630592 -0.0469217 2.24368e-19)
(0.721724 -0.0435759 -5.56721e-20)
(0.0267013 -0.0134964 -9.3732e-20)
(0.0852467 -0.035969 -9.94751e-21)
(0.153039 -0.0503704 -2.50024e-19)
(0.227792 -0.0592275 3.34839e-20)
(0.308484 -0.0630398 -2.90524e-19)
(0.394119 -0.0623588 -2.91772e-19)
(0.483652 -0.0579446 1.82392e-20)
(0.576067 -0.0505693 1.72262e-19)
(0.670178 -0.0412391 -4.31891e-19)
(0.761243 -0.0364485 -1.03731e-19)
(0.0305838 -0.0141551 -8.52676e-20)
(0.0959415 -0.0370996 -7.52179e-20)
(0.169931 -0.0511014 2.43704e-19)
(0.250311 -0.0589944 -4.47938e-20)
(0.336023 -0.0614526 8.92956e-20)
(0.425982 -0.0591943 3.6226e-20)
(0.518994 -0.0531345 2.87841e-19)
(0.613802 -0.0441625 -1.71052e-19)
(0.708909 -0.0333329 6.11241e-21)
(0.799688 -0.0267619 2.66514e-19)
(0.0346653 -0.01459 1.59594e-19)
(0.107095 -0.037623 -1.87989e-19)
(0.187397 -0.0508998 2.44206e-20)
(0.273395 -0.057547 -2.70514e-20)
(0.363996 -0.0584073 1.3855e-19)
(0.458035 -0.0543582 -2.10425e-20)
(0.554183 -0.0464556 1.19463e-19)
(0.650986 -0.0356937 5.27484e-20)
(0.746716 -0.0231748 7.94729e-20)
(0.836963 -0.0146287 -4.05738e-20)
(0.0389217 -0.0147751 -1.48887e-19)
(0.11864 -0.0374739 2.91518e-20)
(0.205332 -0.0496742 -6.92442e-21)
(0.296904 -0.0547784 2.41588e-19)
(0.392238 -0.0537927 2.11496e-19)
(0.490099 -0.047746 9.7635e-20)
(0.589045 -0.0378261 -4.75236e-19)
(0.687466 -0.0251258 1.65788e-19)
(0.783467 -0.0108031 2.29059e-20)
(0.87291 -0.000198589 2.65154e-20)
(0.043327 -0.0146874 -1.59076e-19)
(0.130502 -0.0365961 1.59246e-19)
(0.22362 -0.0473479 1.55234e-19)
(0.320689 -0.0506034 -3.07737e-19)
(0.420575 -0.0475267 -4.27391e-20)
(0.521984 -0.0392919 1.28025e-20)
(0.623389 -0.0272113 2.26447e-19)
(0.72306 -0.0124756 -1.18492e-19)
(0.81899 0.00369355 7.36963e-20)
(0.90734 0.0163478 -7.0458e-20)
(0.0478531 -0.0143071 1.67891e-19)
(0.142602 -0.0349425 -1.21502e-20)
(0.24214 -0.0438595 -1.29808e-20)
(0.344591 -0.0449588 6.83387e-20)
(0.448817 -0.0395563 -8.00759e-20)
(0.553486 -0.028966 2.16152e-20)
(0.657005 -0.0146192 -2.10185e-19)
(0.757561 0.0021959 1.48854e-19)
(0.853085 0.0201873 -3.50683e-20)
(0.940045 0.0348041 5.91865e-20)
(0.0524699 -0.0136177 5.88842e-21)
(0.154857 -0.0324756 -6.2378e-20)
(0.260759 -0.0391639 -7.51091e-20)
(0.36844 -0.0378041 7.97663e-20)
(0.476769 -0.0298577 2.81538e-19)
(0.584389 -0.0167729 -2.40325e-19)
(0.689672 -9.52824e-05 -4.96813e-20)
(0.790754 0.0187904 -1.42674e-19)
(0.885543 0.0385196 -1.10197e-19)
(0.970817 0.0549445 -4.03018e-21)
(0.057145 -0.0126057 -6.57762e-20)
(0.167175 -0.0291675 2.72197e-21)
(0.27934 -0.0332322 2.20325e-20)
(0.392059 -0.029121 -3.85089e-20)
(0.504223 -0.0184345 -1.78141e-19)
(0.614472 -0.00274897 4.64551e-20)
(0.721162 0.0162815 1.31344e-19)
(0.822414 0.0371784 2.48077e-20)
(0.916152 0.0585075 -1.25652e-19)
(0.999458 0.0765296 -1.56338e-19)
(0.061844 -0.0112608 7.77168e-20)
(0.179462 -0.0250003 -9.88856e-20)
(0.297738 -0.0260521 -5.49903e-20)
(0.415264 -0.0189137 -3.29178e-20)
(0.530969 -0.00531738 7.61203e-20)
(0.643507 0.0130398 1.21775e-19)
(0.751246 0.0344027 -8.8203e-22)
(0.85232 0.0572045 6.03986e-20)
(0.944706 0.0799493 1.38434e-19)
(1.02579 0.0993114 1.45157e-19)
(0.0665298 -0.00957638 -1.68235e-20)
(0.191619 -0.0199664 1.18782e-19)
(0.315802 -0.0176277 2.03808e-20)
(0.437866 -0.00720793 -2.56992e-20)
(0.556791 0.00943763 -1.77036e-20)
(0.671267 0.0305003 -5.38764e-20)
(0.779695 0.0541334 9.91758e-20)
(0.880258 0.0786912 -1.2234e-19)
(0.971015 0.102629 -3.95056e-20)
(1.04964 0.123038 -4.46065e-20)
(0.0711634 -0.00754949 -6.25882e-20)
(0.20354 -0.0140688 -2.61044e-20)
(0.333379 -0.00797957 8.23234e-20)
(0.459674 0.00594915 -1.54762e-20)
(0.581475 0.0257503 3.70897e-20)
(0.697527 0.0495146 3.83959e-20)
(0.806291 0.0753162 -7.27701e-20)
(0.906025 0.101443 1.26726e-19)
(0.994905 0.126319 4.61176e-21)
(1.07088 0.147457 1.04002e-19)
(0.0757037 -0.00518113 4.76873e-21)
(0.215121 -0.00732142 5.07286e-20)
(0.350313 0.00285485 -3.13333e-20)
(0.480497 0.0204898 -6.67262e-20)
(0.60481 0.0435175 -3.34779e-20)
(0.722072 0.069942 -2.92213e-20)
(0.830828 0.0977736 6.13104e-20)
(0.929439 0.125251 -1.82713e-20)
(1.01623 0.150789 -9.8082e-20)
(1.0894 0.17232 -4.96835e-21)
(0.0801083 -0.0024766 1.69757e-20)
(0.226251 0.000250488 -1.01524e-20)
(0.366445 0.0148217 3.36472e-20)
(0.500146 0.0363261 3.40398e-20)
(0.626592 0.0626149 6.57584e-21)
(0.744696 0.0916216 -1.67794e-20)
(0.853113 0.121311 -3.92142e-20)
(0.950335 0.149894 -6.01903e-23)
(1.03485 0.175799 4.08462e-20)
(1.10513 0.197385 -2.82816e-20)
(0.0843334 0.000554302 8.30656e-22)
(0.236822 0.00861015 -5.20232e-21)
(0.381622 0.0278507 -2.97972e-20)
(0.518438 0.0533513 2.30523e-21)
(0.646623 0.0828983 6.27386e-21)
(0.765208 0.114374 6.7636e-21)
(0.872976 0.145721 1.7191e-20)
(0.968573 0.175144 -1.3697e-20)
(1.05068 0.201114 3.62133e-21)
(1.118 0.222416 -1.43119e-21)
(0.0883352 0.00389703 -5.93152e-21)
(0.246725 0.0177091 -4.86761e-21)
(0.395692 0.0418553 -2.47402e-20)
(0.535196 0.0714399 4.93255e-21)
(0.664722 0.104205 4.52058e-21)
(0.783434 0.138006 1.0076e-20)
(0.890264 0.170784 1.09821e-20)
(0.984037 0.200766 -1.24019e-20)
(1.06364 0.226498 3.43484e-21)
(1.12801 0.247189 -1.21207e-21)
(0.0920696 0.00753222 2.64098e-20)
(0.255853 0.0274874 -1.69109e-20)
(0.40851 0.0567339 3.7509e-20)
(0.550255 0.0904499 2.28507e-20)
(0.68072 0.126358 1.75776e-21)
(0.799218 0.162308 -5.64124e-21)
(0.904851 0.196271 -3.40279e-20)
(0.996638 0.226525 -5.06339e-21)
(1.07369 0.251718 2.54502e-20)
(1.13514 0.27149 -5.57066e-21)
(0.0954932 0.0114355 1.72187e-20)
(0.264104 0.0378733 1.90384e-20)
(0.419937 0.0723695 -1.81775e-20)
(0.563462 0.110224 -5.46667e-20)
(0.694467 0.149164 -4.37168e-20)
(0.812428 0.187063 1.93218e-20)
(0.916633 0.22195 7.8155e-21)
(1.00631 0.252184 -1.31313e-20)
(1.0808 0.276549 -5.61547e-20)
(1.13944 0.295117 3.26751e-21)
(0.0985643 0.0155777 -3.76571e-20)
(0.271382 0.0487842 -5.22141e-21)
(0.429848 0.0886316 3.2424e-20)
(0.57468 0.130589 3.85388e-20)
(0.705831 0.172418 2.29216e-20)
(0.822953 0.212043 5.92258e-21)
(0.925532 0.247583 -3.16922e-20)
(1.01302 0.277509 5.5486e-20)
(1.08499 0.300773 2.93321e-20)
(1.14094 0.317881 4.06873e-20)
(0.101244 0.0199248 -4.72525e-20)
(0.277597 0.0601271 1.00897e-19)
(0.438128 0.105377 -1.90512e-20)
(0.583789 0.151363 1.60674e-20)
(0.714703 0.195907 8.04837e-21)
(0.830708 0.237019 -6.53525e-20)
(0.931496 0.272935 1.58931e-20)
(1.01675 0.302272 -2.2234e-20)
(1.08628 0.324181 -4.52704e-20)
(1.13973 0.339605 -2.70837e-20)
(0.103496 0.0244384 3.81476e-20)
(0.28267 0.0717994 -1.00533e-19)
(0.444679 0.122453 -1.945e-20)
(0.590689 0.172351 -6.71244e-22)
(0.720998 0.219412 5.47845e-21)
(0.835633 0.261754 6.10977e-20)
(0.9345 0.297769 2.03939e-20)
(1.01752 0.32625 4.98241e-20)
(1.08473 0.346572 4.97358e-20)
(1.13588 0.360124 3.40665e-20)
(0.105288 0.029076 -4.05108e-20)
(0.286532 0.0836906 -1.94202e-20)
(0.449418 0.139695 1.2052e-20)
(0.595302 0.193354 -1.04547e-20)
(0.724654 0.242706 -1.26557e-19)
(0.837694 0.286017 3.91955e-20)
(0.934543 0.321857 1.98414e-20)
(1.01536 0.349229 1.77069e-20)
(1.0804 0.367758 6.05159e-21)
(1.12951 0.379288 -7.59842e-20)
(0.106594 0.0337916 4.05262e-20)
(0.289128 0.0956828 -4.07405e-20)
(0.452281 0.156934 -3.2188e-20)
(0.597572 0.214164 3.91752e-20)
(0.725635 0.265566 1.02871e-19)
(0.836882 0.309576 -8.10152e-20)
(0.931647 0.344977 -4.53626e-20)
(1.01032 0.371007 -3.7949e-20)
(1.07338 0.387561 -5.80283e-20)
(1.12073 0.396955 2.50003e-20)
(0.107391 0.0385363 1.38218e-20)
(0.290415 0.107653 3.81539e-20)
(0.453226 0.173995 1.07258e-20)
(0.597467 0.234575 2.48076e-20)
(0.723932 0.287767 -6.49211e-20)
(0.833215 0.332206 -1.02475e-20)
(0.925858 0.366916 -1.04666e-20)
(1.00248 0.391393 3.31537e-20)
(1.06377 0.405819 1.13776e-20)
(1.10964 0.412988 2.54507e-21)
(0.107664 0.0432589 -4.31723e-21)
(0.290366 0.119474 3.86536e-20)
(0.452228 0.1907 1.70509e-20)
(0.594982 0.254379 -6.45261e-20)
(0.719563 0.309089 -1.32427e-20)
(0.826737 0.353692 -5.4826e-21)
(0.917247 0.387473 7.14923e-20)
(0.991937 0.410211 -3.34563e-20)
(1.0517 0.422397 3.28343e-20)
(1.09635 0.427264 -1.59758e-20)
(0.107403 0.0479069 -3.08314e-20)
(0.288968 0.131019 2.49359e-20)
(0.449288 0.206874 1.07104e-20)
(0.590136 0.273372 5.88277e-20)
(0.712569 0.329321 3.32637e-20)
(0.817516 0.373829 4.4774e-20)
(0.905902 0.40646 -8.30416e-20)
(0.978793 0.427289 6.89807e-21)
(1.03726 0.437168 1.8266e-20)
(1.08106 0.439677 1.12034e-20)
(0.106605 0.052427 3.22625e-20)
(0.286226 0.142157 -3.91389e-20)
(0.444426 0.22234 -3.0972e-20)
(0.582972 0.291355 3.12171e-20)
(0.703023 0.348259 -1.83062e-20)
(0.805644 0.392425 4.63172e-21)
(0.891931 0.423708 3.33301e-20)
(0.963155 0.442489 -9.00718e-21)
(1.02057 0.449984 -1.13827e-21)
(1.06392 0.450157 1.26959e-20)
(0.105274 0.0567663 -1.25324e-20)
(0.282161 0.152763 -4.29831e-21)
(0.437687 0.236929 7.11297e-21)
(0.573561 0.308137 4.21624e-21)
(0.69102 0.365712 -1.96194e-20)
(0.791239 0.409304 5.32901e-21)
(0.875461 0.439065 1.08782e-20)
(0.945153 0.455686 2.39702e-21)
(1.00175 0.460741 -4.14363e-20)
(1.04502 0.458596 -2.3813e-20)
(0.103422 0.0608729 6.74196e-21)
(0.276808 0.162712 8.16948e-21)
(0.429135 0.250475 -2.31098e-20)
(0.562 0.323538 -1.78862e-20)
(0.676684 0.381502 -1.01062e-20)
(0.774443 0.424306 6.1671e-21)
(0.85664 0.4524 -1.79556e-20)
(0.924921 0.466778 1.18588e-20)
(0.98092 0.469356 4.72192e-20)
(1.02447 0.4649 1.58771e-20)
(0.101064 0.0646964 6.84493e-21)
(0.270221 0.171888 1.04552e-20)
(0.418858 0.262823 7.90245e-21)
(0.548407 0.337387 7.56763e-21)
(0.660161 0.395467 5.77822e-21)
(0.755422 0.437292 -3.45232e-20)
(0.835635 0.463603 -2.72283e-20)
(0.902603 0.475684 1.82287e-20)
(0.958177 0.475763 -4.3935e-20)
(1.00238 0.468979 2.10445e-20)
(0.0982264 0.068188 -1.08496e-20)
(0.262468 0.180176 -5.73861e-21)
(0.406962 0.273827 1.0707e-20)
(0.532926 0.349528 -2.57481e-21)
(0.641627 0.407459 -1.20943e-20)
(0.734371 0.448138 -4.02004e-20)
(0.812639 0.472587 6.76011e-20)
(0.878354 0.482354 -4.56489e-20)
(0.933604 0.479923 2.5906e-20)
(0.978795 0.470743 1.61404e-19)
(0.0949378 0.0713031 2.32559e-20)
(0.253627 0.187473 -2.05473e-20)
(0.393572 0.283351 4.27126e-21)
(0.51572 0.359817 6.96982e-22)
(0.621277 0.417346 -4.96429e-20)
(0.711506 0.456741 -1.85824e-20)
(0.787873 0.479287 -2.26134e-20)
(0.852352 0.486768 -5.94492e-20)
(0.907254 0.481836 9.49404e-20)
(0.953734 0.4701 -2.51935e-19)
(0.0912333 0.0739998 -7.65306e-20)
(0.243793 0.193682 3.82756e-20)
(0.37883 0.291272 -7.71367e-20)
(0.496974 0.368125 1.96967e-20)
(0.599329 0.425009 9.18597e-20)
(0.687074 0.463009 5.33122e-20)
(0.761592 0.483659 -9.02623e-20)
(0.824804 0.488941 -6.32574e-20)
(0.879159 0.481536 -1.37574e-20)
(0.927113 0.466919 -1.33424e-19)
(0.0871519 0.0762397 -2.68059e-20)
(0.233068 0.198716 -2.76156e-20)
(0.362891 0.297477 6.41275e-20)
(0.476885 0.374336 4.64395e-20)
(0.576021 0.430345 -6.18416e-20)
(0.661346 0.466866 5.05495e-20)
(0.734098 0.485675 4.18784e-20)
(0.795991 0.488938 3.79279e-20)
(0.849403 0.479164 -3.35571e-19)
(0.898603 0.461088 5.28746e-19)
(0.0827371 0.0779884 1.23038e-20)
(0.221565 0.202497 5.70937e-20)
(0.345921 0.30187 5.83231e-21)
(0.455664 0.378348 -1.59255e-19)
(0.5516 0.43326 5.78019e-20)
(0.634614 0.468239 1.75762e-20)
(0.705741 0.485306 1.17434e-19)
(0.766335 0.486851 6.7696e-20)
(0.818387 0.475138 1.10876e-19)
(0.867525 0.453315 -1.2974e-19)
(0.0780356 0.0792158 -6.19334e-20)
(0.209403 0.204959 -1.34092e-19)
(0.328095 0.304368 9.06689e-20)
(0.433528 0.380075 1.3524e-19)
(0.526318 0.433672 -3.85316e-20)
(0.607169 0.467048 -7.57977e-20)
(0.676896 0.482471 -2.39137e-19)
(0.736451 0.482627 3.16554e-19)
(0.787276 0.469869 -7.98625e-20)
(0.833123 0.445268 1.63896e-20)
(0.0730967 0.0798965 1.37548e-19)
(0.196708 0.206047 2.55876e-19)
(0.309594 0.304902 5.10582e-21)
(0.410696 0.379449 -1.13371e-19)
(0.500421 0.431515 6.27692e-20)
(0.579278 0.463216 1.69779e-19)
(0.647882 0.477035 -1.00505e-19)
(0.706951 0.47585 9.20434e-20)
(0.757929 0.462223 1.22312e-19)
(0.804387 0.436958 -1.20361e-19)
(0.067972 0.0800098 -6.0736e-20)
(0.18361 0.205718 -1.61911e-19)
(0.290601 0.303426 -1.18401e-19)
(0.387386 0.376423 1.59103e-19)
(0.474142 0.426746 4.62113e-20)
(0.551169 0.456703 -1.35499e-19)
(0.618877 0.468937 1.03915e-19)
(0.677794 0.466419 -1.87488e-19)
(0.729258 0.451786 2.10301e-19)
(0.776182 0.426032 -2.62363e-19)
(0.0627155 0.0795408 -1.17185e-19)
(0.170241 0.203944 1.82358e-19)
(0.271303 0.299908 1.09385e-20)
(0.363816 0.370975 1.19496e-19)
(0.44771 0.419354 -3.32997e-19)
(0.523056 0.44751 -3.30926e-19)
(0.59004 0.458203 1.902e-19)
(0.648988 0.454446 5.66254e-21)
(0.701019 0.438901 -1.8041e-19)
(0.748391 0.412874 6.29415e-19)
(0.0573827 0.0784808 1.40527e-19)
(0.156739 0.200711 -2.04811e-19)
(0.251889 0.29434 1.2543e-19)
(0.340205 0.363107 -8.77237e-20)
(0.421351 0.409357 -3.8861e-20)
(0.495153 0.435674 4.99329e-19)
(0.561554 0.444902 -4.13258e-19)
(0.620663 0.440071 1.2579e-19)
(0.673346 0.423877 1.73969e-19)
(0.721311 0.397926 -1.9274e-19)
(0.0520303 0.0768269 -2.48915e-19)
(0.143239 0.19602 2.55272e-20)
(0.232549 0.286733 -5.26476e-20)
(0.316772 0.352844 -1.59125e-19)
(0.395294 0.396798 -3.02627e-19)
(0.467679 0.421259 -1.91074e-19)
(0.533618 0.429121 -5.13264e-20)
(0.59299 0.423415 6.31174e-21)
(0.646399 0.406869 -1.31637e-19)
(0.695092 0.381337 7.15542e-20)
(0.0467156 0.0745829 -1.17336e-19)
(0.129882 0.189886 2.59815e-19)
(0.21347 0.277117 -2.54107e-20)
(0.293732 0.340233 2.66616e-20)
(0.369763 0.381739 1.8336e-19)
(0.440855 0.404344 1.30132e-19)
(0.506436 0.410957 3.78991e-19)
(0.566153 0.404587 2.19451e-19)
(0.620349 0.387976 -7.03519e-19)
(0.669875 0.363156 1.37695e-19)
(0.0414956 0.0717587 1.95821e-19)
(0.116803 0.182339 -3.14853e-19)
(0.194841 0.265542 -4.57898e-20)
(0.271301 0.32534 1.87199e-19)
(0.344982 0.364263 1.12596e-19)
(0.414899 0.385025 5.66472e-19)
(0.480213 0.390516 -4.75968e-19)
(0.540342 0.383692 3.86764e-20)
(0.595372 0.367281 3.99921e-19)
(0.64581 0.343423 3.63842e-19)
(0.0364267 0.0683704 3.36206e-20)
(0.104137 0.173421 3.81079e-19)
(0.176844 0.252073 1.76965e-19)
(0.249687 0.308251 -9.91521e-20)
(0.321168 0.344471 -1.81367e-19)
(0.390025 0.363412 -5.1031e-21)
(0.455153 0.367909 1.56817e-19)
(0.515745 0.360835 8.18431e-20)
(0.571641 0.344869 -2.07866e-19)
(0.623046 0.322188 -4.57271e-20)
(0.0315635 0.0644399 6.05262e-20)
(0.0920137 0.163192 -3.69118e-19)
(0.159654 0.236795 -2.28014e-19)
(0.22909 0.289072 3.24678e-19)
(0.298531 0.322481 3.07169e-20)
(0.366438 0.339629 -4.19231e-19)
(0.431451 0.343258 2.68066e-19)
(0.492542 0.336127 -1.29981e-19)
(0.549317 0.320827 2.07471e-19)
(0.601716 0.299511 -9.54654e-20)
(0.0269584 0.0599946 -3.66808e-20)
(0.0805578 0.151718 2.16689e-19)
(0.143442 0.219807 -1.09247e-19)
(0.209703 0.267922 -1.30938e-19)
(0.277268 0.298425 1.98523e-19)
(0.344333 0.313811 2.55248e-20)
(0.409289 0.316694 1.51813e-20)
(0.4709 0.309685 1.15568e-19)
(0.528549 0.29525 -1.4671e-19)
(0.581945 0.275466 -3.42046e-19)
(0.0226611 0.0550673 -3.59152e-20)
(0.0698866 0.139082 -1.02323e-19)
(0.128364 0.201226 3.84624e-19)
(0.191706 0.244939 -2.72817e-19)
(0.257568 0.27245 -1.86516e-19)
(0.323894 0.286108 -2.71915e-19)
(0.388839 0.288359 -2.10043e-19)
(0.450973 0.281636 -6.67999e-20)
(0.509473 0.268245 -1.50044e-19)
(0.563842 0.250141 1.80981e-19)
(0.0187176 0.0496953 -9.26643e-20)
(0.0601093 0.125376 -3.10976e-21)
(0.114569 0.181179 -1.11869e-19)
(0.175266 0.220273 -1.93176e-19)
(0.239602 0.244718 7.85807e-20)
(0.305286 0.25668 -5.9529e-20)
(0.370257 0.258405 -2.00239e-19)
(0.432903 0.252117 -1.33692e-19)
(0.49221 0.239927 1.89375e-19)
(0.547506 0.223636 7.88973e-20)
(0.0151703 0.0439206 2.99523e-19)
(0.0513256 0.110701 4.83638e-21)
(0.102191 0.159807 3.29462e-20)
(0.160534 0.194089 9.64557e-20)
(0.223526 0.215404 -6.43291e-20)
(0.288663 0.225701 3.43503e-19)
(0.353683 0.226995 4.05387e-19)
(0.416815 0.221274 2.64527e-19)
(0.47687 0.210426 -3.34552e-20)
(0.533025 0.196065 -3.85487e-20)
(0.0120567 0.0377886 -2.33076e-19)
(0.0436248 0.0951692 -7.78286e-21)
(0.0913509 0.137265 -4.31381e-20)
(0.147646 0.166564 1.91195e-19)
(0.209481 0.184693 -2.52333e-20)
(0.274158 0.193353 -5.793e-20)
(0.339243 0.194302 -1.81985e-19)
(0.402819 0.189262 -1.10916e-19)
(0.463546 0.179877 6.44615e-20)
(0.520473 0.167548 -1.49076e-19)
(0.00941018 0.0313486 -7.9971e-20)
(0.037085 0.0788977 -8.82983e-21)
(0.0821525 0.113714 -1.44659e-20)
(0.136722 0.137886 9.68976e-22)
(0.197587 0.152782 4.34715e-20)
(0.261889 0.159831 -1.65273e-19)
(0.327044 0.160506 1.20649e-19)
(0.39101 0.156247 -1.74599e-19)
(0.452319 0.148428 -7.7423e-20)
(0.509916 0.138219 8.52074e-20)
(0.00725863 0.0246524 2.60015e-20)
(0.0317724 0.0620122 -4.40648e-20)
(0.0746853 0.089326 1.39196e-19)
(0.12786 0.108251 1.64533e-20)
(0.187948 0.119876 6.38695e-20)
(0.251955 0.125336 3.30604e-20)
(0.317175 0.125797 -1.36267e-19)
(0.381467 0.1224 1.3312e-19)
(0.443256 0.116231 1.1265e-19)
(0.501406 0.108214 -1.79753e-19)
(0.00562482 0.0177546 6.32797e-21)
(0.0277404 0.0446434 6.37246e-20)
(0.0690212 0.0642795 -3.08479e-20)
(0.121142 0.0778648 -1.19235e-19)
(0.180645 0.0861894 -9.92919e-20)
(0.244434 0.0900767 1.65063e-20)
(0.30971 0.090372 -8.81124e-21)
(0.374254 0.0878996 8.28869e-20)
(0.436412 0.0834462 7.11186e-20)
(0.494987 0.0776789 1.2747e-19)
(0.00452596 0.0107113 5.63432e-20)
(0.0250297 0.0269262 -3.10978e-20)
(0.0652146 0.0387586 6.17023e-20)
(0.11663 0.0469367 4.0752e-20)
(0.175742 0.0519399 3.19894e-20)
(0.239387 0.0542672 -3.29492e-20)
(0.304702 0.0544306 1.78233e-20)
(0.369419 0.0529289 1.87158e-21)
(0.431827 0.050238 -1.3262e-20)
(0.490689 0.0467611 -9.05799e-20)
(0.00397364 0.00358022 -6.66307e-21)
(0.0236676 0.00899883 -8.23312e-21)
(0.0633021 0.0129514 -5.39335e-20)
(0.114363 0.015682 -3.79856e-21)
(0.17328 0.0173511 2.70911e-20)
(0.236854 0.018126 1.398e-20)
(0.30219 0.0181782 3.41568e-21)
(0.366994 0.0176746 -4.12177e-20)
(0.429528 0.0167745 2.42246e-20)
(0.488535 0.0156127 -2.78092e-20)
(0.00397364 -0.00358021 3.71955e-22)
(0.0236676 -0.00899883 -2.23167e-20)
(0.0633021 -0.0129514 -4.78113e-20)
(0.114363 -0.015682 1.54074e-21)
(0.17328 -0.0173511 2.4854e-20)
(0.236854 -0.018126 4.6409e-21)
(0.30219 -0.0181782 9.31046e-21)
(0.366994 -0.0176745 -3.47149e-20)
(0.429528 -0.0167744 2.50637e-20)
(0.488535 -0.0156127 -2.83192e-20)
(0.00452596 -0.0107113 4.06177e-20)
(0.0250297 -0.0269262 -2.13173e-20)
(0.0652146 -0.0387586 7.54768e-20)
(0.11663 -0.0469367 6.95225e-20)
(0.175742 -0.0519398 -1.56536e-20)
(0.239387 -0.0542671 -1.22937e-20)
(0.304702 -0.0544306 1.77113e-20)
(0.369419 -0.0529289 -1.51709e-20)
(0.431827 -0.050238 -3.16158e-20)
(0.490689 -0.0467611 -1.97985e-20)
(0.00562482 -0.0177546 3.84182e-20)
(0.0277404 -0.0446434 3.91581e-20)
(0.0690212 -0.0642795 -3.81802e-20)
(0.121142 -0.0778648 -1.17777e-19)
(0.180645 -0.0861894 -5.91191e-20)
(0.244434 -0.0900767 -2.68887e-20)
(0.30971 -0.090372 1.83055e-20)
(0.374254 -0.0878996 7.32565e-20)
(0.436412 -0.0834462 -3.38598e-20)
(0.494987 -0.0776789 2.36265e-19)
(0.00725863 -0.0246524 -1.8284e-21)
(0.0317724 -0.0620122 -1.15527e-20)
(0.0746853 -0.089326 7.33216e-20)
(0.12786 -0.108251 4.28032e-20)
(0.187948 -0.119876 5.5269e-20)
(0.251955 -0.125336 5.18512e-20)
(0.317175 -0.125797 -1.46514e-19)
(0.381467 -0.1224 1.02146e-19)
(0.443256 -0.116231 1.37518e-19)
(0.501406 -0.108214 -1.17054e-19)
(0.00941018 -0.0313486 -6.09206e-20)
(0.037085 -0.0788977 3.65442e-20)
(0.0821525 -0.113714 5.78223e-21)
(0.136722 -0.137886 -6.61821e-21)
(0.197587 -0.152782 -5.29148e-20)
(0.261889 -0.159831 -9.88974e-20)
(0.327044 -0.160506 3.97459e-20)
(0.39101 -0.156247 -1.21249e-19)
(0.452319 -0.148428 -1.17526e-19)
(0.509916 -0.138219 7.55261e-20)
(0.0120567 -0.0377886 -1.64192e-19)
(0.0436248 -0.0951692 9.63769e-21)
(0.0913509 -0.137265 -9.09839e-20)
(0.147646 -0.166564 7.67084e-20)
(0.209481 -0.184693 1.66327e-19)
(0.274158 -0.193353 -1.05626e-19)
(0.339243 -0.194302 -2.45751e-19)
(0.402819 -0.189262 -4.8521e-20)
(0.463546 -0.179877 -1.51137e-20)
(0.520473 -0.167548 -7.89458e-20)
(0.0151702 -0.0439206 2.90727e-19)
(0.0513256 -0.110701 -5.17723e-20)
(0.102191 -0.159807 3.39227e-20)
(0.160534 -0.194089 1.17248e-19)
(0.223526 -0.215404 -7.29293e-21)
(0.288663 -0.225701 3.93381e-19)
(0.353683 -0.226995 3.71788e-19)