/*--------------------------------*- C++ -*----------------------------------*\
  =========                 |
  \\      /  F ield         | OpenFOAM: The Open Source CFD Toolbox
   \\    /   O peration     | Website:  https://openfoam.org
    \\  /    A nd           | Version:  7
     \\/     M anipulation  |
\*---------------------------------------------------------------------------*/
FoamFile
{
    version     2.0;
    format      ascii;
    class       volScalarField;
    location    "10";
    object      p;
}
// * * * * * * * * * * * * * * * * * * * * * * * * * * * * * * * * * * * * * //

dimensions      [0 2 -2 0 0 0 0];

internalField   nonuniform List<scalar> 
6386
(
-0.306429
-0.312006
-0.313938
-0.314356
-0.313487
-0.311405
-0.308274
-0.304253
-0.299458
-0.293812
-0.307182
-0.312633
-0.314486
-0.31483
-0.313893
-0.31175
-0.308561
-0.304494
-0.299654
-0.293884
-0.308683
-0.313885
-0.315576
-0.315774
-0.314702
-0.312435
-0.309132
-0.304969
-0.300042
-0.29402
-0.31092
-0.315752
-0.317203
-0.317182
-0.315907
-0.313454
-0.309976
-0.30567
-0.300612
-0.294201
-0.313877
-0.318221
-0.319354
-0.319041
-0.317495
-0.314793
-0.311083
-0.306581
-0.30135
-0.294381
-0.317535
-0.321277
-0.322015
-0.321339
-0.319453
-0.316439
-0.312435
-0.307687
-0.30225
-0.294499
-0.32187
-0.324901
-0.325168
-0.324058
-0.321766
-0.318376
-0.314016
-0.308966
-0.303294
-0.294674
-0.326857
-0.329072
-0.328795
-0.327181
-0.324417
-0.320588
-0.31581
-0.310397
-0.304351
-0.294857
-0.332468
-0.333767
-0.332876
-0.330691
-0.327388
-0.323057
-0.317799
-0.311967
-0.3055
-0.294896
-0.338677
-0.338965
-0.337391
-0.334569
-0.330664
-0.325771
-0.319969
-0.313655
-0.306719
-0.294767
-0.345458
-0.344642
-0.342319
-0.338798
-0.334232
-0.328718
-0.32231
-0.315451
-0.307983
-0.294445
-0.352784
-0.350774
-0.347642
-0.343361
-0.338078
-0.33189
-0.32482
-0.31735
-0.309282
-0.293865
-0.360627
-0.35734
-0.353338
-0.348244
-0.342193
-0.335284
-0.327501
-0.319361
-0.310617
-0.293033
-0.368962
-0.364315
-0.359389
-0.353433
-0.346571
-0.338901
-0.330365
-0.321501
-0.311995
-0.291911
-0.377761
-0.371675
-0.365776
-0.358916
-0.351208
-0.34275
-0.333433
-0.323804
-0.313447
-0.290521
-0.379395
-0.372479
-0.364681
-0.356101
-0.346839
-0.336736
-0.326327
-0.315034
-0.288981
-0.387446
-0.379476
-0.370714
-0.361249
-0.351183
-0.340311
-0.329139
-0.3168
-0.287391
-0.395797
-0.386745
-0.377002
-0.366648
-0.355797
-0.344214
-0.332331
-0.318639
-0.285552
-0.394259
-0.383527
-0.372294
-0.360701
-0.348538
-0.336093
-0.320745
-0.284407
-0.401986
-0.390266
-0.37817
-0.365898
-0.353353
-0.34075
-0.325273
-0.29349
-0.397185
-0.384241
-0.371333
-0.358529
-0.346136
-0.33424
-0.332024
-0.390456
-0.376896
-0.36375
-0.351308
-0.340286
-0.344754
-0.396769
-0.382513
-0.368871
-0.356011
-0.344371
-0.349096
-0.388148
-0.373879
-0.360385
-0.347817
-0.35129
-0.378758
-0.364458
-0.350786
-0.351956
-0.368189
-0.353224
-0.351472
-0.355121
-0.350163
-0.348203
-0.356476
-0.348202
-0.355132
-0.350165
-0.368213
-0.353235
-0.351477
-0.378792
-0.36448
-0.350797
-0.351963
-0.388189
-0.37391
-0.360405
-0.347826
-0.351298
-0.396815
-0.38255
-0.368899
-0.356029
-0.34438
-0.349106
-0.390498
-0.376929
-0.363775
-0.351324
-0.340294
-0.344763
-0.397231
-0.384279
-0.371364
-0.358551
-0.346151
-0.334247
-0.332031
-0.402035
-0.390308
-0.378205
-0.365926
-0.353374
-0.340763
-0.325278
-0.293483
-0.394303
-0.383565
-0.372326
-0.360726
-0.348557
-0.336104
-0.320749
-0.284397
-0.395841
-0.386785
-0.377037
-0.366677
-0.35582
-0.344231
-0.332341
-0.318643
-0.285544
-0.387486
-0.379512
-0.370746
-0.361275
-0.351204
-0.340326
-0.329149
-0.316804
-0.287384
-0.387031
-0.379431
-0.372511
-0.364709
-0.356125
-0.346858
-0.336749
-0.326335
-0.315038
-0.288976
-0.377795
-0.371707
-0.365805
-0.358942
-0.351229
-0.342767
-0.333446
-0.323812
-0.313451
-0.290517
-0.368993
-0.364344
-0.359415
-0.353457
-0.346591
-0.338917
-0.330377
-0.321508
-0.311999
-0.291908
-0.360654
-0.357365
-0.353361
-0.348265
-0.342211
-0.335298
-0.327512
-0.319368
-0.310621
-0.293032
-0.352808
-0.350797
-0.347663
-0.34338
-0.338093
-0.331902
-0.32483
-0.317357
-0.309286
-0.293863
-0.345479
-0.344662
-0.342338
-0.338814
-0.334246
-0.328729
-0.322319
-0.315457
-0.307987
-0.294446
-0.338696
-0.338983
-0.337408
-0.334584
-0.330677
-0.325781
-0.319977
-0.313661
-0.306723
-0.294768
-0.332485
-0.333783
-0.332891
-0.330704
-0.3274
-0.323066
-0.317806
-0.311972
-0.305504
-0.294897
-0.326871
-0.329085
-0.328808
-0.327193
-0.324426
-0.320596
-0.315816
-0.310402
-0.304355
-0.294859
-0.321882
-0.324913
-0.325179
-0.324067
-0.321774
-0.318383
-0.314022
-0.30897
-0.303297
-0.294676
-0.317546
-0.321287
-0.322024
-0.321347
-0.31946
-0.316445
-0.31244
-0.30769
-0.302253
-0.2945
-0.313886
-0.318229
-0.319362
-0.319048
-0.3175
-0.314798
-0.311086
-0.306585
-0.301353
-0.294383
-0.310926
-0.315758
-0.317209
-0.317187
-0.315911
-0.313457
-0.309979
-0.305673
-0.300614
-0.294202
-0.308687
-0.313889
-0.31558
-0.315778
-0.314706
-0.312438
-0.309134
-0.304971
-0.300043
-0.294021
-0.307185
-0.312636
-0.314488
-0.314832
-0.313895
-0.311751
-0.308562
-0.304495
-0.299655
-0.293885
-0.30643
-0.312007
-0.313939
-0.314356
-0.313488
-0.311406
-0.308274
-0.304253
-0.299458
-0.293812
-0.289169
-0.284058
-0.278332
-0.272088
-0.265271
-0.257937
-0.250131
-0.2419
-0.233302
-0.224392
-0.215231
-0.205878
-0.196391
-0.186825
-0.177229
-0.167652
-0.158137
-0.148721
-0.139439
-0.130322
-0.121395
-0.112682
-0.104201
-0.0959669
-0.087993
-0.0802875
-0.0728592
-0.0657069
-0.0588453
-0.0522465
-0.0459709
-0.0398869
-0.0342602
-0.0285527
-0.023814
-0.0180406
-0.0149888
-0.00779923
-0.00884031
0.00365367
-0.00819379
0.0200992
-0.289584
-0.284387
-0.278611
-0.272343
-0.265503
-0.258149
-0.250327
-0.242083
-0.233472
-0.224552
-0.215382
-0.206022
-0.196528
-0.186954
-0.177353
-0.16777
-0.158248
-0.148827
-0.139539
-0.130417
-0.121485
-0.112766
-0.10428
-0.0960416
-0.0880632
-0.0803534
-0.0729211
-0.0657651
-0.0588998
-0.0522977
-0.046019
-0.0399321
-0.0343025
-0.0285928
-0.0238508
-0.0180767
-0.0150193
-0.00783383
-0.0088604
0.00361427
-0.00819174
0.0200382
-0.290408
-0.285038
-0.279166
-0.272848
-0.265963
-0.25857
-0.250716
-0.242444
-0.23381
-0.22487
-0.215683
-0.206307
-0.196799
-0.187212
-0.177598
-0.168003
-0.15847
-0.149038
-0.139739
-0.130606
-0.121664
-0.112935
-0.104439
-0.096191
-0.0882035
-0.0804852
-0.0730447
-0.065881
-0.0590086
-0.0523998
-0.0461147
-0.0400221
-0.0343866
-0.0286724
-0.0239238
-0.0181483
-0.0150794
-0.00790239
-0.00890002
0.00353602
-0.00818735
0.0199167
-0.291634
-0.286
-0.279986
-0.273596
-0.266641
-0.25919
-0.251288
-0.242977
-0.234309
-0.22534
-0.216127
-0.206729
-0.1972
-0.187595
-0.177963
-0.168351
-0.158801
-0.149352
-0.140037
-0.130888
-0.12193
-0.113187
-0.104676
-0.0964139
-0.0884129
-0.0806818
-0.0732292
-0.066054
-0.0591708
-0.0525519
-0.0462574
-0.040156
-0.0345118
-0.0287908
-0.0240324
-0.0182548
-0.0151688
-0.00800439
-0.00895877
0.00341948
-0.00818049
0.0197355
-0.293281
-0.287252
-0.281054
-0.27457
-0.267523
-0.259996
-0.252033
-0.243668
-0.234958
-0.225952
-0.216708
-0.207281
-0.197727
-0.188098
-0.178443
-0.168809
-0.159237
-0.149767
-0.140431
-0.131261
-0.122283
-0.11352
-0.10499
-0.0967088
-0.0886901
-0.0809419
-0.0734732
-0.0662828
-0.0593853
-0.052753
-0.0464458
-0.040333
-0.0346771
-0.0289472
-0.0241756
-0.0183954
-0.0152867
-0.00813905
-0.00903603
0.00326548
-0.00817094
0.0194958
-0.295397
-0.288719
-0.282334
-0.275751
-0.268588
-0.26097
-0.252932
-0.244507
-0.235744
-0.226696
-0.217414
-0.207955
-0.198371
-0.188714
-0.179033
-0.169372
-0.159775
-0.150278
-0.140917
-0.131722
-0.122719
-0.113931
-0.105378
-0.0970738
-0.089033
-0.0812638
-0.0737751
-0.0665658
-0.0596506
-0.0530016
-0.0466787
-0.0405516
-0.0348812
-0.0291403
-0.0243523
-0.0185689
-0.0154319
-0.00830536
-0.00913099
0.00307512
-0.00815843
0.0191992
-0.297597
-0.290466
-0.283814
-0.277109
-0.269823
-0.262092
-0.253967
-0.245473
-0.236653
-0.227557
-0.218235
-0.208741
-0.199124
-0.189436
-0.179725
-0.170035
-0.160408
-0.150882
-0.141492
-0.132267
-0.123235
-0.114419
-0.105837
-0.0975064
-0.0894395
-0.0816453
-0.0741329
-0.0669012
-0.0599648
-0.053296
-0.0469544
-0.0408103
-0.0351226
-0.0293686
-0.0245612
-0.0187741
-0.0156033
-0.00850209
-0.0092427
0.00284972
-0.00814262
0.0188475
-0.300139
-0.292888
-0.285519
-0.278629
-0.271197
-0.26334
-0.255119
-0.246548
-0.237667
-0.228521
-0.219158
-0.209626
-0.199976
-0.190255
-0.180512
-0.170791
-0.161132
-0.151573
-0.14215
-0.132893
-0.123828
-0.114979
-0.106365
-0.0980037
-0.0899069
-0.082084
-0.0745442
-0.0672866
-0.0603258
-0.0536342
-0.047271
-0.0411072
-0.0353995
-0.0296305
-0.0248005
-0.0190094
-0.0157994
-0.00872783
-0.00937005
0.00259082
-0.00812314
0.0184431
-0.302948
-0.295077
-0.287331
-0.280283
-0.272683
-0.264686
-0.256362
-0.247711
-0.238768
-0.229572
-0.220167
-0.210599
-0.200915
-0.191162
-0.181387
-0.171632
-0.161939
-0.152346
-0.142887
-0.133594
-0.124493
-0.115608
-0.106959
-0.0985624
-0.0904321
-0.0825769
-0.0750064
-0.0677196
-0.0607313
-0.0540138
-0.0476261
-0.0414403
-0.0357099
-0.0299241
-0.0250684
-0.0192731
-0.0160187
-0.00898096
-0.00951181
0.00230013
-0.00809956
0.0179884
-0.306062
-0.297532
-0.289282
-0.282039
-0.274252
-0.266106
-0.257673
-0.248941
-0.239937
-0.230693
-0.221249
-0.211647
-0.201931
-0.192147
-0.182339
-0.172551
-0.162823
-0.153193
-0.143697
-0.134365
-0.125225
-0.116301
-0.107613
-0.0991791
-0.0910118
-0.0831211
-0.0755165
-0.0681974
-0.0611785
-0.0544324
-0.0480175
-0.0418072
-0.0360516
-0.0302473
-0.025363
-0.0195633
-0.0162594
-0.00925976
-0.00966664
0.00197955
-0.00807142
0.0174862
-0.309429
-0.300173
-0.291325
-0.283861
-0.275874
-0.267571
-0.259028
-0.250217
-0.241154
-0.231867
-0.222389
-0.212756
-0.203012
-0.193198
-0.18336
-0.173539
-0.163776
-0.154109
-0.144574
-0.135201
-0.12602
-0.117054
-0.108325
-0.0998498
-0.0916425
-0.0837131
-0.0760714
-0.0687169
-0.0616646
-0.0548872
-0.0484425
-0.0422055
-0.0364222
-0.0305979
-0.0256822
-0.0198781
-0.0165196
-0.00956238
-0.00983315
0.00163109
-0.00803826
0.0169393
-0.312645
-0.302891
-0.293415
-0.285712
-0.277515
-0.269053
-0.260402
-0.251516
-0.242402
-0.233078
-0.223571
-0.213914
-0.204146
-0.194307
-0.184441
-0.174588
-0.164791
-0.155087
-0.145512
-0.136097
-0.126873
-0.117863
-0.10909
-0.100571
-0.0923204
-0.0843493
-0.0766677
-0.0692751
-0.0621866
-0.0553754
-0.0488985
-0.0426326
-0.0368193
-0.0309736
-0.0260236
-0.0202154
-0.0167975
-0.00988686
-0.0100099
0.00125686
-0.0079996
0.0163509
-0.316212
-0.305702
-0.295511
-0.287556
-0.279144
-0.270524
-0.261772
-0.252819
-0.243662
-0.234311
-0.224783
-0.215108
-0.205321
-0.195462
-0.185571
-0.175691
-0.16586
-0.15612
-0.146504
-0.137047
-0.127778
-0.118722
-0.109903
-0.101337
-0.0930417
-0.0850264
-0.0773021
-0.0698687
-0.0627416
-0.0558941
-0.0493826
-0.0430859
-0.0372403
-0.031372
-0.0263852
-0.020573
-0.0170911
-0.0102312
-0.0101954
0.000859074
-0.00795501
0.015724
-0.319747
-0.308504
-0.297576
-0.289353
-0.280725
-0.271958
-0.263116
-0.254108
-0.24492
-0.23555
-0.226011
-0.216327
-0.206529
-0.196655
-0.186744
-0.176838
-0.166977
-0.157201
-0.147545
-0.138045
-0.12873
-0.119628
-0.11076
-0.102146
-0.0938027
-0.0857406
-0.0779712
-0.0704947
-0.0633264
-0.0564405
-0.0498922
-0.0435628
-0.0376829
-0.0317907
-0.0267645
-0.0209488
-0.0173984
-0.0105934
-0.0103883
0.000439952
-0.007904
0.0150617
-0.323164
-0.311222
-0.29956
-0.291055
-0.28222
-0.273328
-0.264412
-0.255364
-0.246158
-0.236783
-0.227243
-0.217559
-0.207757
-0.197874
-0.187948
-0.178021
-0.168132
-0.158322
-0.148629
-0.139086
-0.129725
-0.120573
-0.111656
-0.102992
-0.0945988
-0.0864879
-0.0786711
-0.0711493
-0.0639377
-0.0570113
-0.0504241
-0.0440605
-0.0381441
-0.0322273
-0.0271591
-0.0213405
-0.0177172
-0.0109714
-0.0105869
1.61096e-06
-0.00784585
0.0143672
-0.326294
-0.313694
-0.301384
-0.292601
-0.283585
-0.274602
-0.265638
-0.256569
-0.247361
-0.237993
-0.228464
-0.218788
-0.208991
-0.199106
-0.189171
-0.179227
-0.169314
-0.159473
-0.149742
-0.140157
-0.13075
-0.12155
-0.112582
-0.103867
-0.0954225
-0.0872612
-0.0793954
-0.0718265
-0.0645699
-0.0576015
-0.0509738
-0.0445747
-0.0386203
-0.0326782
-0.0275661
-0.0217454
-0.0180453
-0.011363
-0.0107896
-0.000453697
-0.00777992
0.0136434
-0.328752
-0.315678
-0.302989
-0.293954
-0.284795
-0.275766
-0.266784
-0.257716
-0.248521
-0.239174
-0.229666
-0.220008
-0.210223
-0.200343
-0.190405
-0.180448
-0.170514
-0.160645
-0.150879
-0.141253
-0.131801
-0.122552
-0.113533
-0.104766
-0.0962696
-0.0880567
-0.0801404
-0.072523
-0.0652199
-0.0582081
-0.0515385
-0.0451028
-0.039109
-0.0331411
-0.0279833
-0.0221613
-0.0183813
-0.0117655
-0.0109962
-0.000922215
-0.00770841
0.0128946
-0.330265
-0.31718
-0.304473
-0.295166
-0.285884
-0.276856
-0.267888
-0.258842
-0.249679
-0.240365
-0.23089
-0.221261
-0.211498
-0.20163
-0.191695
-0.181731
-0.171781
-0.161885
-0.152084
-0.142417
-0.132918
-0.123618
-0.114545
-0.105722
-0.0971689
-0.0888999
-0.0809288
-0.0732585
-0.0659048
-0.0588456
-0.0521303
-0.0456547
-0.0396184
-0.0336222
-0.0284162
-0.0225907
-0.0187289
-0.0121782
-0.0112109
-0.0013986
-0.00763832
0.0121265
-0.330808
-0.317624
-0.305487
-0.296023
-0.286715
-0.277782
-0.268895
-0.259916
-0.250816
-0.241564
-0.232145
-0.222564
-0.21284
-0.203001
-0.193081
-0.18312
-0.173159
-0.163242
-0.153409
-0.1437
-0.134151
-0.124796
-0.115663
-0.106778
-0.0981613
-0.0898287
-0.0817949
-0.0740639
-0.0666517
-0.0595378
-0.0527697
-0.0462478
-0.0401624
-0.034133
-0.0288726
-0.0230413
-0.0190906
-0.0126066
-0.0114302
-0.00188976
-0.00755786
0.0113331
-0.323678
-0.312416
-0.304342
-0.295596
-0.286616
-0.277992
-0.269309
-0.260466
-0.251472
-0.242308
-0.232967
-0.223454
-0.213787
-0.203994
-0.194108
-0.18417
-0.174221
-0.164304
-0.154461
-0.144733
-0.135158
-0.12577
-0.1166
-0.107673
-0.0990126
-0.0906346
-0.0825548
-0.0747785
-0.0673212
-0.0601653
-0.0533539
-0.0467971
-0.0406668
-0.0346176
-0.0292973
-0.0234836
-0.019418
-0.0130524
-0.0115961
-0.00244189
-0.00737461
0.0104724
-0.287445
-0.29783
-0.301746
-0.294936
-0.286537
-0.278299
-0.269825
-0.261071
-0.252102
-0.242934
-0.23357
-0.224025
-0.214325
-0.2045
-0.194586
-0.184624
-0.174656
-0.164725
-0.154874
-0.14514
-0.135563
-0.126176
-0.117007
-0.108084
-0.0994282
-0.0910553
-0.0829803
-0.0752095
-0.0677552
-0.0606054
-0.0537912
-0.0472451
-0.0410962
-0.0350771
-0.0296941
-0.0239746
-0.0197265
-0.0136368
-0.0116874
-0.00327283
-0.00694026
0.00923188
-0.281623
-0.287271
-0.293108
-0.287632
-0.280137
-0.272769
-0.265034
-0.256862
-0.248377
-0.239632
-0.230651
-0.221459
-0.212084
-0.202562
-0.192929
-0.183228
-0.173499
-0.163787
-0.154133
-0.144578
-0.13516
-0.125914
-0.116871
-0.108056
-0.0994945
-0.0912031
-0.0831975
-0.0754862
-0.0680808
-0.060974
-0.0541903
-0.0476782
-0.0415381
-0.035558
-0.0301436
-0.0245044
-0.020125
-0.0142548
-0.0119081
-0.00410487
-0.00666958
0.00785894
-0.276501
-0.278934
-0.284131
-0.279513
-0.272761
-0.266089
-0.259017
-0.251428
-0.243458
-0.235183
-0.226639
-0.217855
-0.208866
-0.199707
-0.190419
-0.181039
-0.171612
-0.162179
-0.152783
-0.143464
-0.13426
-0.125207
-0.116337
-0.107677
-0.0992513
-0.0910799
-0.0831791
-0.0755589
-0.0682314
-0.0611929
-0.054464
-0.0480044
-0.0418951
-0.0359639
-0.0305434
-0.0249787
-0.0205098
-0.0148183
-0.0121616
-0.00485586
-0.00650834
0.00656417
-0.271194
-0.271129
-0.275261
-0.271293
-0.265187
-0.259084
-0.252598
-0.245571
-0.23812
-0.23033
-0.22224
-0.213885
-0.205302
-0.196528
-0.187603
-0.178566
-0.16946
-0.160327
-0.151208
-0.142144
-0.133174
-0.124333
-0.115654
-0.107165
-0.0988921
-0.0908558
-0.0830736
-0.0755574
-0.0683195
-0.0613594
-0.0546948
-0.0482951
-0.0422248
-0.0363464
-0.0309283
-0.0254365
-0.0208905
-0.0153666
-0.0124223
-0.00558909
-0.00636957
0.00529813
-0.264764
-0.263077
-0.26596
-0.26243
-0.256922
-0.251355
-0.245439
-0.23899
-0.232093
-0.224829
-0.217241
-0.209362
-0.201231
-0.192887
-0.184367
-0.175712
-0.166965
-0.158165
-0.149357
-0.140578
-0.13187
-0.123266
-0.114802
-0.106507
-0.0984062
-0.0905228
-0.0828752
-0.075477
-0.0683413
-0.0614704
-0.0548799
-0.0485475
-0.0425243
-0.0367024
-0.0312951
-0.0258742
-0.0212636
-0.0158954
-0.0126868
-0.00629864
-0.00625146
0.00407027
-0.25667
-0.254234
-0.255903
-0.252705
-0.2478
-0.242778
-0.237434
-0.231581
-0.225273
-0.218578
-0.211538
-0.204184
-0.196554
-0.188686
-0.180618
-0.17239
-0.164043
-0.155618
-0.147158
-0.138701
-0.130287
-0.121953
-0.113733
-0.105657
-0.0977528
-0.090044
-0.0825507
-0.0752881
-0.0682701
-0.061502
-0.0549979
-0.0487426
-0.0427766
-0.0370168
-0.0316304
-0.0262796
-0.0216192
-0.0163938
-0.0129505
-0.00697155
-0.00616032
0.00289927
-0.246821
-0.2443
-0.244953
-0.242073
-0.237804
-0.233358
-0.2286
-0.223364
-0.217672
-0.211582
-0.205129
-0.198342
-0.191256
-0.183907
-0.176334
-0.168574
-0.160668
-0.152657
-0.144582
-0.136483
-0.128398
-0.120364
-0.112418
-0.104589
-0.096907
-0.0893963
-0.0820784
-0.0749704
-0.0680873
-0.061437
-0.055033
-0.0488661
-0.0429684
-0.0372777
-0.0319231
-0.0266431
-0.0219484
-0.0168543
-0.0132069
-0.00760025
-0.00609577
0.00179974
-0.235272
-0.233164
-0.233082
-0.230557
-0.226964
-0.223134
-0.218983
-0.214378
-0.209328
-0.20387
-0.198035
-0.191848
-0.185343
-0.178551
-0.17151
-0.164256
-0.156829
-0.149269
-0.141614
-0.133906
-0.126183
-0.118482
-0.110838
-0.103285
-0.0958505
-0.0885617
-0.0814412
-0.0745077
-0.0677777
-0.0612613
-0.0549719
-0.0489057
-0.0430885
-0.037475
-0.0321637
-0.0269566
-0.0222429
-0.0172704
-0.0134492
-0.00817909
-0.00605508
0.000783586
-0.22225
-0.220879
-0.220365
-0.218253
-0.215363
-0.212185
-0.208661
-0.2047
-0.200303
-0.195496
-0.1903
-0.184739
-0.17884
-0.172635
-0.166157
-0.159441
-0.152525
-0.145446
-0.138245
-0.13096
-0.12363
-0.116291
-0.10898
-0.101728
-0.0945674
-0.0875246
-0.0806237
-0.0738853
-0.0673271
-0.0609614
-0.0548022
-0.0488498
-0.0431259
-0.037599
-0.0323427
-0.0272123
-0.0224947
-0.0176363
-0.0136712
-0.00870295
-0.00603514
-0.000139165
-0.208114
-0.207637
-0.206974
-0.205326
-0.203147
-0.200639
-0.197753
-0.194439
-0.190699
-0.186546
-0.181998
-0.177075
-0.171799
-0.166198
-0.160304
-0.154149
-0.147769
-0.1412
-0.134479
-0.127645
-0.120734
-0.113785
-0.106832
-0.0999085
-0.0930459
-0.0862725
-0.0796134
-0.0730906
-0.0667231
-0.0605255
-0.0545124
-0.048688
-0.0430706
-0.0376405
-0.0324516
-0.0274028
-0.0226965
-0.0179465
-0.013867
-0.00916742
-0.00603248
-0.000960768
-0.19329
-0.193723
-0.193139
-0.191991
-0.190505
-0.188661
-0.186408
-0.183733
-0.180638
-0.177132
-0.173228
-0.168941
-0.164291
-0.159302
-0.154003
-0.148423
-0.142595
-0.136553
-0.130332
-0.12397
-0.117502
-0.110965
-0.104394
-0.097822
-0.0912804
-0.0847982
-0.0784019
-0.0721145
-0.0659566
-0.0599443
-0.0540934
-0.0484113
-0.0429143
-0.0375921
-0.032483
-0.027522
-0.0228421
-0.0181967
-0.0140313
-0.00956916
-0.00604317
-0.00167627
-0.178211
-0.179469
-0.179123
-0.178484
-0.177647
-0.176436
-0.174796
-0.172734
-0.170262
-0.167383
-0.164105
-0.16044
-0.156407
-0.152026
-0.14732
-0.142318
-0.137048
-0.131543
-0.125836
-0.11996
-0.113952
-0.107845
-0.101674
-0.0954727
-0.0892716
-0.0831003
-0.0769859
-0.0709526
-0.0650218
-0.0592117
-0.0535388
-0.0480134
-0.0426505
-0.0374476
-0.0324311
-0.027565
-0.0229264
-0.0183833
-0.0141598
-0.00990599
-0.00606291
-0.0022838
-0.163262
-0.165201
-0.165184
-0.165034
-0.164782
-0.164154
-0.163087
-0.161602
-0.159717
-0.157431
-0.15475
-0.151684
-0.148247
-0.144457
-0.140334
-0.135903
-0.131189
-0.126221
-0.121031
-0.115649
-0.110109
-0.104445
-0.0986882
-0.0928721
-0.0870273
-0.0811834
-0.0753676
-0.0696048
-0.0639175
-0.0583252
-0.0528452
-0.0474904
-0.0422752
-0.0372033
-0.0322918
-0.0275285
-0.0229457
-0.0185041
-0.014249
-0.010177
-0.00608706
-0.00278473
-0.148752
-0.151208
-0.151547
-0.151845
-0.1521
-0.151991
-0.151443
-0.150487
-0.149142
-0.147408
-0.145286
-0.142785
-0.139914
-0.13669
-0.133129
-0.129252
-0.125082
-0.120644
-0.115966
-0.111078
-0.10601
-0.100794
-0.0954592
-0.0900386
-0.0845618
-0.0790579
-0.0735541
-0.0680759
-0.0626463
-0.0572858
-0.0520125
-0.0468416
-0.0417868
-0.0368573
-0.0320632
-0.0274107
-0.0228979
-0.0185581
-0.0142965
-0.0103824
-0.00611114
-0.00318307
-0.134901
-0.137713
-0.138394
-0.13908
-0.139761
-0.140096
-0.140006
-0.139523
-0.138666
-0.137434
-0.135826
-0.133848
-0.131507
-0.128816
-0.125789
-0.122443
-0.118796
-0.114873
-0.110698
-0.106296
-0.101696
-0.0969262
-0.0920165
-0.0869962
-0.0818944
-0.0767392
-0.0715577
-0.0663751
-0.0612149
-0.0560982
-0.0510439
-0.0460687
-0.0411862
-0.0364099
-0.0317448
-0.0272114
-0.022782
-0.0185455
-0.0143007
-0.0105239
-0.00613097
-0.0034852
-0.121843
-0.124871
-0.125853
-0.126861
-0.127885
-0.128589
-0.128891
-0.128821
-0.128396
-0.127613
-0.126469
-0.124969
-0.123116
-0.120921
-0.118393
-0.115548
-0.112401
-0.108971
-0.10528
-0.101351
-0.0972092
-0.0928808
-0.0883928
-0.0837729
-0.0790486
-0.0742469
-0.0693941
-0.0645151
-0.0596332
-0.0547702
-0.0499452
-0.045176
-0.0404766
-0.0358634
-0.0313381
-0.026932
-0.0225986
-0.0184675
-0.0142611
-0.0106038
-0.0061428
-0.00369947
-0.109646
-0.112777
-0.114004
-0.115266
-0.116558
-0.11756
-0.118188
-0.118469
-0.118418
-0.118029
-0.1173
-0.116228
-0.11482
-0.113079
-0.111014
-0.108635
-0.105957
-0.102995
-0.0997666
-0.0962925
-0.0925947
-0.0886965
-0.0846228
-0.0803988
-0.0760503
-0.071603
-0.0670818
-0.0625112
-0.057914
-0.0533119
-0.0487244
-0.0441701
-0.039663
-0.0352218
-0.0308463
-0.0265749
-0.0223493
-0.0183263
-0.0141777
-0.0106257
-0.00614334
-0.00383569
-0.0983224
-0.101473
-0.102887
-0.104341
-0.105832
-0.107066
-0.107959
-0.108533
-0.108799
-0.108751
-0.108384
-0.107694
-0.106683
-0.105354
-0.103712
-0.101766
-0.0995238
-0.0969998
-0.0942085
-0.0911672
-0.0878949
-0.0844122
-0.0807411
-0.0769048
-0.0729267
-0.068831
-0.0646412
-0.0603807
-0.0560716
-0.0517355
-0.0473916
-0.0430591
-0.0387519
-0.0344904
-0.0302734
-0.026144
-0.0220367
-0.0181249
-0.0140513
-0.0105935
-0.00612987
-0.00390452
-0.0878551
-0.0909637
-0.0925113
-0.0941011
-0.0957349
-0.0971424
-0.0982445
-0.0990563
-0.0995867
-0.0998287
-0.0997742
-0.0994186
-0.0987606
-0.0978008
-0.096542
-0.0949891
-0.0931494
-0.0910326
-0.0886507
-0.0860176
-0.0831495
-0.0800643
-0.0767812
-0.0733209
-0.0697048
-0.0659548
-0.0620931
-0.0581416
-0.0541217
-0.0500541
-0.0459578
-0.0418521
-0.037751
-0.0336757
-0.0296246
-0.0256434
-0.0216638
-0.0178668
-0.0138833
-0.0105118
-0.00610033
-0.00391686
-0.0782062
-0.0812314
-0.0828664
-0.0845455
-0.086273
-0.0878048
-0.0890659
-0.0900667
-0.0908131
-0.0912971
-0.0915088
-0.0914421
-0.0910934
-0.0904611
-0.0895457
-0.0883494
-0.0868769
-0.0851351
-0.0831331
-0.0808818
-0.0783946
-0.0756867
-0.0727745
-0.0696761
-0.0664107
-0.062998
-0.0594585
-0.0558124
-0.0520802
-0.0482814
-0.0444349
-0.0405592
-0.0366687
-0.0327845
-0.0289055
-0.0250782
-0.0212345
-0.0175558
-0.0136753
-0.0103853
-0.00605325
-0.00388335
-0.0693289
-0.0722436
-0.0739282
-0.0756583
-0.0774402
-0.079055
-0.0804322
-0.0815786
-0.0824976
-0.08318
-0.0836149
-0.0837946
-0.0837139
-0.083369
-0.0827584
-0.081882
-0.080742
-0.0793427
-0.0776904
-0.0757937
-0.0736629
-0.0713103
-0.06875
-0.0659974
-0.0630692
-0.0599832
-0.0567576
-0.0534113
-0.0499631
-0.0464317
-0.0428348
-0.0391908
-0.0355136
-0.0318244
-0.0281225
-0.0244536
-0.0207527
-0.0171962
-0.0134294
-0.0102187
-0.00598784
-0.00381386
-0.0611732
-0.0639609
-0.0656651
-0.0674159
-0.0692208
-0.0708846
-0.0723419
-0.0735965
-0.0746496
-0.0754915
-0.0761105
-0.0764976
-0.0766461
-0.0765509
-0.0762082
-0.0756161
-0.0747746
-0.0736857
-0.0723532
-0.0707831
-0.0689832
-0.0669631
-0.0647343
-0.0623097
-0.0597038
-0.0569318
-0.0540102
-0.050956
-0.0477863
-0.0445187
-0.0411699
-0.0377575
-0.034295
-0.030803
-0.0272818
-0.0237752
-0.0202227
-0.016792
-0.013148
-0.0100168
-0.00590388
-0.00371718
-0.0536899
-0.0563414
-0.0580421
-0.05979
-0.0615933
-0.0632788
-0.0647862
-0.0661171
-0.0672712
-0.0682382
-0.0690062
-0.0695653
-0.0699076
-0.0700267
-0.0699172
-0.0695756
-0.0689999
-0.06819
-0.0671477
-0.0658764
-0.0643815
-0.0626703
-0.0607518
-0.0586365
-0.0563363
-0.0538644
-0.0512352
-0.0484636
-0.0455654
-0.0425565
-0.0394525
-0.03627
-0.033022
-0.0297284
-0.0263902
-0.0230488
-0.0196491
-0.0163477
-0.0128335
-0.00978378
-0.00580169
-0.00360079
-0.0468317
-0.0493429
-0.051023
-0.0527499
-0.0545328
-0.0562182
-0.0577514
-0.059132
-0.0603587
-0.0614212
-0.0623072
-0.0630065
-0.0635103
-0.0638112
-0.0639026
-0.0637796
-0.0634386
-0.0628777
-0.0620965
-0.0610965
-0.0598811
-0.058455
-0.056825
-0.0549992
-0.0529873
-0.0508004
-0.0484506
-0.045951
-0.0433155
-0.0405586
-0.0376946
-0.034739
-0.0317041
-0.0286086
-0.0254545
-0.0222803
-0.0190367
-0.0158677
-0.0124889
-0.00952397
-0.00568205
-0.0034708
-0.0405546
-0.042925
-0.0445717
-0.0462646
-0.0480128
-0.0496812
-0.0512205
-0.0526289
-0.0539044
-0.0550368
-0.0560139
-0.0568253
-0.0574617
-0.0579149
-0.0581776
-0.0582436
-0.0581079
-0.0577671
-0.0572193
-0.056464
-0.0555026
-0.0543378
-0.0529744
-0.0514181
-0.0496765
-0.0477584
-0.0456739
-0.0434343
-0.0410517
-0.0385388
-0.0359087
-0.0331755
-0.0303508
-0.0274521
-0.0244819
-0.0214757
-0.0183903
-0.0153565
-0.0121172
-0.00924127
-0.00554618
-0.00333203
-0.0348174
-0.0370491
-0.0386536
-0.0403029
-0.042006
-0.0436447
-0.0451745
-0.0465931
-0.0478976
-0.0490782
-0.0501233
-0.0510222
-0.0517656
-0.0523447
-0.0527516
-0.0529792
-0.0530216
-0.0528741
-0.0525331
-0.0519968
-0.0512647
-0.0503378
-0.049219
-0.047912
-0.0464221
-0.0447561
-0.0429221
-0.0409296
-0.0387887
-0.0365107
-0.0341071
-0.0315906
-0.0289721
-0.0262674
-0.0234799
-0.0206417
-0.0177154
-0.0148189
-0.0117219
-0.00893942
-0.0053956
-0.0031881
-0.0295823
-0.0316792
-0.0332355
-0.0348347
-0.0364855
-0.0380849
-0.0395933
-0.0410079
-0.0423253
-0.0435363
-0.0446296
-0.045595
-0.0464229
-0.0471044
-0.0476313
-0.0479957
-0.048191
-0.0482115
-0.0480526
-0.0477108
-0.047184
-0.0464716
-0.0455766
-0.0444988
-0.0432418
-0.0418106
-0.0402116
-0.0384523
-0.0365412
-0.0344878
-0.0323022
-0.0299956
-0.0275779
-0.0250635
-0.0224562
-0.0197849
-0.0170176
-0.0142598
-0.0113067
-0.00862204
-0.00523211
-0.0030417
-0.0248144
-0.0267816
-0.0282862
-0.0298312
-0.0314249
-0.0329783
-0.0344565
-0.035856
-0.0371735
-0.0384
-0.0395252
-0.0405389
-0.041432
-0.0421953
-0.0428205
-0.0432994
-0.0436249
-0.0437904
-0.0437903
-0.0436201
-0.0432758
-0.042753
-0.0420637
-0.0411953
-0.0401522
-0.0389384
-0.0375584
-0.0360179
-0.0343238
-0.0324839
-0.0305067
-0.028402
-0.0261787
-0.0238498
-0.021419
-0.0189125
-0.0163029
-0.0136843
-0.0108756
-0.00829266
-0.00505774
-0.00289478
-0.0204816
-0.0223253
-0.0237763
-0.0252649
-0.026799
-0.0283021
-0.0297434
-0.0311196
-0.032427
-0.0336573
-0.0348007
-0.0358477
-0.0367893
-0.0376167
-0.0383212
-0.0388948
-0.0393298
-0.0396192
-0.039757
-0.0397379
-0.0395583
-0.0392171
-0.0386997
-0.0380178
-0.0371693
-0.0361551
-0.0349778
-0.0336413
-0.0321507
-0.0305124
-0.0287332
-0.0268216
-0.0247853
-0.0226358
-0.020377
-0.0180319
-0.0155777
-0.0130979
-0.010433
-0.00795485
-0.00487468
-0.0027488
-0.0165547
-0.0182817
-0.0196786
-0.0211103
-0.0225838
-0.0240341
-0.0254344
-0.0267811
-0.0280707
-0.0292954
-0.0304462
-0.0315139
-0.0324901
-0.0333662
-0.0341336
-0.0347843
-0.0353104
-0.0357046
-0.0359603
-0.0360715
-0.0360331
-0.0358407
-0.0354892
-0.0349784
-0.0343072
-0.0334756
-0.0324848
-0.0313372
-0.0300364
-0.028587
-0.0269948
-0.0252664
-0.0234088
-0.0214317
-0.0193389
-0.0171511
-0.0148489
-0.0125063
-0.00998343
-0.00761221
-0.00468528
-0.00260495
-0.0130069
-0.0146246
-0.0159683
-0.0173436
-0.018757
-0.0201535
-0.0215103
-0.0228235
-0.0240896
-0.0253016
-0.026451
-0.0275295
-0.0285287
-0.0294405
-0.0302567
-0.0309692
-0.0315701
-0.0320519
-0.0324077
-0.0326309
-0.0327156
-0.0326567
-0.0324497
-0.0320916
-0.0315802
-0.0309143
-0.0300939
-0.02912
-0.0279948
-0.0267214
-0.0253042
-0.0237487
-0.0220603
-0.0202477
-0.0183143
-0.0162783
-0.0141235
-0.0119155
-0.0095319
-0.00726845
-0.00449204
-0.00246425
-0.00981434
-0.0113304
-0.0126225
-0.0139432
-0.0152979
-0.0166412
-0.0179533
-0.0192305
-0.0204695
-0.0216635
-0.0228049
-0.023886
-0.0248988
-0.0258357
-0.0266887
-0.0274498
-0.0281113
-0.0286657
-0.0291057
-0.0294245
-0.0296157
-0.0296736
-0.0295932
-0.0293704
-0.0290017
-0.0284851
-0.0278192
-0.0270039
-0.0260399
-0.0249292
-0.0236747
-0.0222807
-0.0207515
-0.0190944
-0.0173126
-0.015422
-0.0134091
-0.011332
-0.00908354
-0.00692746
-0.00429758
-0.00232771
-0.0069557
-0.00837818
-0.00962102
-0.0108894
-0.012188
-0.0134794
-0.0147471
-0.0159874
-0.0171968
-0.0183694
-0.019498
-0.0205754
-0.0215945
-0.0225476
-0.0234274
-0.0242261
-0.024936
-0.0255498
-0.02606
-0.0264596
-0.0267419
-0.0269009
-0.0269307
-0.0268267
-0.0265847
-0.0262015
-0.0256746
-0.0250028
-0.0241856
-0.0232239
-0.0221194
-0.020875
-0.0194942
-0.017983
-0.016344
-0.0145913
-0.0127136
-0.0107622
-0.00864378
-0.00659325
-0.00410463
-0.00219639
-0.00441232
-0.00574935
-0.00694585
-0.00816506
-0.00941074
-0.0106528
-0.0118772
-0.0130807
-0.0142596
-0.0154086
-0.0165211
-0.0175905
-0.0186099
-0.0195725
-0.0204709
-0.0212978
-0.0220458
-0.0227074
-0.0232755
-0.0237428
-0.0241024
-0.0243479
-0.0244732
-0.0244728
-0.024342
-0.0240768
-0.0236737
-0.0231305
-0.0224458
-0.0216193
-0.0206515
-0.0195445
-0.0183005
-0.0169245
-0.0154187
-0.0137953
-0.012045
-0.0102131
-0.00821829
-0.00627004
-0.00391609
-0.00207138
-0.00216823
-0.00342815
-0.00458172
-0.00575539
-0.00695201
-0.00814777
-0.00933124
-0.010499
-0.0116477
-0.0127722
-0.0138666
-0.0149249
-0.0159406
-0.0169071
-0.0178176
-0.0186651
-0.0194424
-0.0201423
-0.0207574
-0.0212807
-0.0217052
-0.0220241
-0.0222311
-0.0223202
-0.0222861
-0.0221241
-0.0218301
-0.021401
-0.0208344
-0.020129
-0.0192846
-0.018302
-0.0171828
-0.0159306
-0.0145474
-0.0130438
-0.0114118
-0.00969198
-0.00781301
-0.00596225
-0.00373497
-0.00195388
-0.000210366
-0.00140164
-0.00251613
-0.00364837
-0.00480034
-0.00595366
-0.00709904
-0.00823318
-0.00935275
-0.0104531
-0.0115287
-0.0125741
-0.0135831
-0.0145497
-0.0154674
-0.0163293
-0.0171287
-0.0178584
-0.0185114
-0.0190805
-0.0195587
-0.0199391
-0.020215
-0.0203804
-0.0204294
-0.0203567
-0.0201575
-0.0198281
-0.0193654
-0.0187672
-0.0180324