/*--------------------------------*- C++ -*----------------------------------*\
  =========                 |
  \\      /  F ield         | OpenFOAM: The Open Source CFD Toolbox
   \\    /   O peration     | Website:  https://openfoam.org
    \\  /    A nd           | Version:  7
     \\/     M anipulation  |
\*---------------------------------------------------------------------------*/
FoamFile
{
    version     2.0;
    format      ascii;
    class       volVectorField;
    location    "5";
    object      U;
}
// * * * * * * * * * * * * * * * * * * * * * * * * * * * * * * * * * * * * * //

dimensions      [0 1 -1 0 0 0 0];

internalField   nonuniform List<vector> 
54412
(
(-0.00082035 0.000649247 2.2586e-21)
(-0.00415194 0.00141765 8.79581e-21)
(-0.010063 0.00180449 -3.45182e-21)
(-0.0167272 0.00191344 2.55257e-21)
(-0.0233691 0.0018207 -1.94793e-20)
(-0.0294291 0.00159456 -8.68642e-21)
(-0.0345249 0.00129687 -1.92117e-21)
(-0.0384992 0.000984184 -2.88219e-20)
(-0.0413809 0.000700819 3.83621e-21)
(-0.0432011 0.00048648 1.82675e-20)
(-0.000909312 0.00193387 -2.06711e-20)
(-0.00429637 0.00422001 -4.6991e-21)
(-0.010132 0.00536823 1.47977e-20)
(-0.0166247 0.0056869 -5.81896e-20)
(-0.0230125 0.00540351 -7.56792e-21)
(-0.0287459 0.00472208 1.16144e-20)
(-0.0334507 0.00382785 4.35342e-21)
(-0.0369785 0.00289057 8.00238e-20)
(-0.0393663 0.00204422 -5.89325e-20)
(-0.0405859 0.00141163 9.74257e-21)
(-0.00108335 0.00317334 3.98182e-20)
(-0.00457622 0.00691524 -6.02339e-21)
(-0.0102583 0.00878595 2.54727e-20)
(-0.0164066 0.00929068 5.96963e-20)
(-0.0222859 0.00880435 1.27445e-19)
(-0.0273669 0.00766378 -9.57247e-20)
(-0.0312907 0.0061757 3.38514e-22)
(-0.0339276 0.00462245 -7.77103e-20)
(-0.0353313 0.00322956 1.01092e-19)
(-0.0353517 0.00221356 -9.68986e-20)
(-0.00133475 0.00433891 4.61444e-21)
(-0.00497349 0.00943494 -3.62816e-21)
(-0.010418 0.0119643 2.86269e-20)
(-0.0160462 0.0126162 -4.3099e-20)
(-0.0211619 0.0119069 -3.3946e-20)
(-0.0252657 0.0103011 1.68427e-19)
(-0.0280217 0.00822373 -5.35842e-20)
(-0.0293274 0.0060686 -1.57279e-19)
(-0.0292644 0.00415559 -5.28529e-20)
(-0.0274894 0.002814 7.17621e-20)
(-0.00165219 0.00540389 7.76224e-21)
(-0.00546158 0.0117151 3.56047e-20)
(-0.0105758 0.0148155 -7.97861e-20)
(-0.0155036 0.0155618 9.81504e-20)
(-0.0195992 0.0146024 6.71961e-20)
(-0.0224027 0.0125234 -2.6027e-19)
(-0.0236079 0.00986337 2.27626e-19)
(-0.023148 0.00712561 1.40129e-19)
(-0.0211475 0.00472924 4.904e-20)
(-0.0169836 0.00315328 -1.57784e-20)
(-0.00202109 0.00634417 -5.63034e-20)
(-0.00600583 0.0136974 -2.75934e-20)
(-0.0106853 0.01726 2.50311e-20)
(-0.0147256 0.0180347 -2.17858e-19)
(-0.0175424 0.0167923 1.10441e-19)
(-0.0187239 0.0142311 -2.93758e-20)
(-0.0180002 0.0109976 1.74783e-21)
(-0.0153469 0.00770114 2.67522e-20)
(-0.0109483 0.00486726 -6.16461e-20)
(-0.00383456 0.00321589 -3.45621e-20)
(-0.00242392 0.00713879 1.2488e-19)
(-0.00656412 0.0153307 -1.55437e-20)
(-0.0106894 0.0192273 9.96151e-20)
(-0.0136463 0.0199538 3.51266e-20)
(-0.0149222 0.0183911 -3.13806e-20)
(-0.014161 0.0153392 -2.64105e-20)
(-0.0111357 0.0115446 -1.8775e-20)
(-0.00586921 0.0077192 -5.33525e-20)
(0.00139838 0.00449152 2.86673e-20)
(0.0119235 0.00290931 2.27931e-19)
(-0.00284063 0.00777024 -1.33434e-19)
(-0.00708751 0.0165718 9.52581e-20)
(-0.0105207 0.0206584 -1.83544e-19)
(-0.0121873 0.0212517 2.22766e-20)
(-0.0116548 0.0193289 5.67572e-20)
(-0.00863036 0.0157796 2.13706e-19)
(-0.0029353 0.0114409 -1.02346e-19)
(0.00534898 0.0071199 1.75216e-19)
(0.0159344 0.0035531 -1.21311e-19)
(0.0304152 0.00216321 -1.56691e-19)
(-0.00324899 0.00822466 1.11801e-19)
(-0.00752096 0.0173861 -5.85185e-20)
(-0.0101025 0.0215062 -1.52574e-19)
(-0.010258 0.0218757 1.43927e-20)
(-0.00764238 0.0195534 -2.8219e-19)
(-0.00203311 0.0155045 -1.71206e-20)
(0.00669502 0.010645 1.27382e-20)
(0.0183963 0.00586836 -8.78459e-20)
(0.0327206 0.00203268 2.09076e-19)
(0.0516852 0.000989484 8.36593e-20)
(-0.00362497 0.00849184 -8.80139e-20)
(-0.00780403 0.0177478 -1.49338e-19)
(-0.00934946 0.0217367 3.93832e-19)
(-0.00775621 0.0217899 1.50466e-19)
(-0.00277345 0.0190319 5.02943e-20)
(0.00574499 0.0144892 1.13966e-19)
(0.0178658 0.00914174 -1.3118e-19)
(0.0333746 0.00395837 2.14628e-20)
(0.0518437 -8.16436e-05 -3.41686e-19)
(0.0757927 -0.000590477 3.21993e-20)
(-0.00394304 0.00856514 2.38408e-20)
(-0.00787164 0.0176406 7.22286e-20)
(-0.00816828 0.0213297 -5.20182e-19)
(-0.00456927 0.0209756 -7.53343e-20)
(0.00307656 0.0177529 7.7333e-20)
(0.0148332 0.0127332 -3.72118e-19)
(0.0307035 0.00694461 -1.25376e-20)
(0.0504006 0.0014143 -8.82254e-21)
(0.0734037 -0.00276633 -1.27817e-19)
(0.102804 -0.00253784 1.8584e-20)
(-0.00417635 0.00844116 -2.54138e-20)
(-0.0076547 0.0170568 1.32807e-19)
(-0.00645913 0.0202783 3.46859e-19)
(-0.000575152 0.0194316 -1.7527e-19)
(0.010044 0.0157263 1.35152e-20)
(0.0253745 0.0102625 -1.44723e-19)
(0.0453498 0.00409821 -3.72325e-20)
(0.0696059 -0.00170339 3.53815e-19)
(0.0975183 -0.00595738 2.90257e-19)
(0.132831 -0.00477712 -3.6856e-20)
(-0.0042969 0.0081198 2.53575e-20)
(-0.00708083 0.0159978 5.80008e-20)
(-0.00411666 0.0185893 -3.14593e-19)
(0.00435564 0.0171747 1.2767e-19)
(0.0182747 0.0129839 1.40067e-19)
(0.0375235 0.00712934 4.98344e-19)
(0.0619592 0.000679705 2.75665e-19)
(0.091135 -0.00529468 -1.38899e-19)
(0.124313 -0.00954929 -3.67599e-20)
(0.165965 -0.00721665 -1.85588e-19)
(-0.00427594 0.00760392 1.85849e-19)
(-0.00607532 0.0144734 -2.98281e-19)
(-0.00103176 0.0162829 4.69724e-19)
(0.0103578 0.014239 -1.69775e-19)
(0.0279213 0.0095781 -1.75638e-19)
(0.0514433 0.00341123 -5.61411e-19)
(0.0806962 -0.00320166 -3.75381e-19)
(0.115142 -0.00921744 2.11681e-19)
(0.153922 -0.0133842 3.17659e-19)
(0.202296 -0.00971069 3.27785e-19)
(-0.00408408 0.0068992 -1.65197e-19)
(-0.00456227 0.0125017 -7.72209e-20)
(0.00290634 0.0133919 1.12666e-20)
(0.017568 0.0106745 2.11516e-20)
(0.0391388 0.00558056 4.56917e-19)
(0.0673008 -0.000792014 1.74855e-20)
(0.101731 -0.00740807 3.6759e-19)
(0.141789 -0.0132888 -3.35588e-19)
(0.186488 -0.0172458 -6.57743e-19)
(0.241899 -0.0120652 -3.16001e-19)
(-0.00369161 0.00601415 6.22707e-20)
(-0.00246585 0.0101094 4.70376e-19)
(0.00780738 0.00996181 7.65716e-21)
(0.0261209 0.00654648 -2.69345e-19)
(0.0520795 0.00107913 1.72182e-19)
(0.0852596 -0.00536327 -2.97004e-19)
(0.125232 -0.0117805 -6.31878e-20)
(0.17124 -0.0172924 1.56594e-19)
(0.222166 -0.0208588 2.01462e-19)
(0.284832 -0.0140402 1.58013e-19)
(-0.00306895 0.00496031 1.41929e-19)
(0.000288101 0.00733121 -2.35491e-19)
(0.0137771 0.00605007 -2.23446e-19)
(0.0361439 0.00193413 -3.24088e-20)
(0.0668852 -0.00382519 1.65087e-19)
(0.105471 -0.0101748 5.6356e-19)
(0.151356 -0.0161506 4.70436e-19)
(0.203651 -0.0209928 7.12673e-20)
(0.261117 -0.0238779 5.88811e-19)
(0.331107 -0.0152998 2.62317e-19)
(-0.00218735 0.00375243 6.69367e-20)
(0.00377013 0.00421076 4.33465e-19)
(0.0209135 0.00172614 1.11328e-19)
(0.047752 -0.00307071 4.63055e-19)
(0.0836793 -0.0090215 -1.73152e-19)
(0.128063 -0.0150968 -5.57471e-19)
(0.180235 -0.0203595 -2.87819e-19)
(0.239164 -0.0241561 -3.32195e-19)
(0.303479 -0.0258267 -7.16954e-19)
(0.380561 -0.015208 -8.19815e-20)
(-0.00101954 0.00240884 -3.11531e-19)
(0.00804503 0.000800509 2.09436e-19)
(0.0293032 -0.00292834 -3.06379e-19)
(0.0610409 -0.00836369 -2.0517e-19)
(0.102556 -0.0143915 -8.2473e-20)
(0.153126 -0.0200078 -2.41626e-20)
(0.211967 -0.0242894 8.91339e-20)
(0.277939 -0.0266037 1.44783e-19)
(0.349494 -0.0261091 2.52116e-19)
(0.43276 -0.0128687 -4.13914e-19)
(0.000459338 0.00095166 1.00356e-20)
(0.0131698 -0.00283764 -2.13323e-19)
(0.0390176 -0.00781886 1.60137e-19)
(0.0760806 -0.0138268 2.70281e-19)
(0.123569 -0.019809 -1.81124e-19)
(0.180684 -0.0248011 4.52254e-19)
(0.246577 -0.0278988 -1.59468e-19)
(0.320171 -0.0283524 -8.06129e-20)
(0.400026 -0.024622 1.21672e-20)
(0.488758 -0.00908013 1.24614e-19)
(0.00227107 -0.000592967 -2.43756e-20)
(0.0191918 -0.006632 2.50611e-19)
(0.0501101 -0.012837 -2.57945e-20)
(0.0929105 -0.0193256 -2.01661e-19)
(0.146717 -0.0251323 1.67528e-19)
(0.210664 -0.0293692 -1.50349e-19)
(0.283877 -0.0312081 6.52607e-19)
(0.365617 -0.0297719 -1.74254e-19)
(0.45581 -0.022907 3.70983e-19)
(0.556404 -0.00886703 -1.94843e-19)
(0.00443375 -0.00219499 -1.5148e-19)
(0.0261478 -0.0105012 2.31578e-19)
(0.0626149 -0.0178594 -1.38472e-19)
(0.111538 -0.0247048 1.9794e-19)
(0.171947 -0.0301898 -3.6366e-19)
(0.242885 -0.0335546 -4.95246e-19)
(0.323412 -0.034156 -4.99355e-19)
(0.412909 -0.0313349 6.86172e-20)
(0.511896 -0.0237523 2.65853e-19)
(0.619368 -0.0163341 -8.42522e-20)
(0.00696159 -0.00382082 2.84034e-19)
(0.0340633 -0.0143548 -3.26758e-19)
(0.0765475 -0.0227488 -7.74698e-20)
(0.131945 -0.0297876 -3.72341e-19)
(0.199168 -0.0347716 6.89307e-19)
(0.277126 -0.0371134 5.31596e-19)
(0.364712 -0.0364261 1.05633e-19)
(0.461111 -0.0324219 -5.49684e-21)
(0.56652 -0.0246091 -6.59872e-20)
(0.676912 -0.0212892 1.04303e-18)
(0.00986486 -0.00543405 -5.80953e-20)
(0.0429529 -0.0180952 9.5226e-21)
(0.0919061 -0.0273563 -1.87164e-19)
(0.154088 -0.0343805 -6.2697e-20)
(0.228269 -0.038641 2.81909e-19)
(0.313171 -0.0397516 -6.13779e-19)
(0.407421 -0.0376015 2.63317e-19)
(0.509791 -0.0322645 1.22987e-19)
(0.619725 -0.0237977 -8.826e-19)
(0.731243 -0.0218173 -1.56861e-19)
(0.01315 -0.00699618 3.23892e-19)
(0.0528199 -0.0216193 -1.87616e-19)
(0.108672 -0.0315257 1.94188e-19)
(0.177907 -0.0382814 7.10751e-20)
(0.259126 -0.0415534 -1.07337e-19)
(0.350814 -0.0411735 -5.15521e-20)
(0.451262 -0.0373049 -2.72949e-19)
(0.558727 -0.0303377 3.00851e-19)
(0.671812 -0.0206942 2.0959e-20)
(0.783562 -0.0183181 -1.66995e-19)
(0.0168197 -0.00846743 -1.73353e-19)
(0.0636564 -0.0248213 4.46662e-19)
(0.126807 -0.0350981 -1.30101e-19)
(0.203318 -0.0412885 3.4011e-20)
(0.291593 -0.0432709 6.42676e-19)
(0.389842 -0.0411083 -2.90887e-19)
(0.495976 -0.0352316 -2.7243e-19)
(0.607713 -0.0263092 1.0595e-19)
(0.722864 -0.0150356 9.32837e-20)
(0.834101 -0.0111607 -8.85651e-20)
(0.0208726 -0.00980733 7.75514e-20)
(0.0754428 -0.0275947 4.23467e-20)
(0.146259 -0.0379161 5.45674e-20)
(0.230215 -0.0432064 -9.48558e-20)
(0.325502 -0.0435728 -1.14778e-19)
(0.430025 -0.0393222 -4.54446e-19)
(0.541293 -0.0311504 6.30351e-20)
(0.6565 -0.0199815 8.04732e-20)
(0.772766 -0.00674133 1.51799e-19)
(0.882752 -0.000712412 4.57084e-19)
(0.0253034 -0.0109752 -6.50468e-20)
(0.0881469 -0.0298338 -5.59729e-19)
(0.166951 -0.0398271 3.96456e-19)
(0.25847 -0.0438521 1.86966e-19)
(0.36066 -0.0422628 -3.03572e-19)
(0.471105 -0.0356242 -4.68762e-20)
(0.586912 -0.0249009 3.70757e-19)
(0.70479 -0.0112643 6.38161e-19)
(0.821285 0.00413762 1.80339e-20)
(0.929269 0.0126244 -1.77694e-19)
(0.0301023 -0.0119307 -9.47892e-20)
(0.101723 -0.0314358 2.00342e-19)
(0.188788 -0.0406867 -5.09211e-19)
(0.287924 -0.043059 -1.88845e-19)
(0.396841 -0.0391728 2.05583e-19)
(0.512796 -0.0298681 1.16538e-19)
(0.632505 -0.0163877 -4.25098e-19)
(0.752246 -0.000151762 -3.10624e-19)
(0.868118 0.0174652 -4.07172e-19)
(0.973352 0.0284466 2.4986e-19)
(0.0352543 -0.0126338 3.59403e-20)
(0.116113 -0.0323019 3.58509e-19)
(0.211655 -0.0403609 1.87695e-19)
(0.318396 -0.0406801 2.0979e-19)
(0.433795 -0.0341662 -7.64255e-20)
(0.554784 -0.0219529 3.76474e-19)
(0.677713 -0.00557368 -3.38409e-20)
(0.798502 0.0132965 2.26784e-19)
(0.912932 0.0330521 4.53881e-19)
(1.01469 0.0463646 -2.13011e-19)
(0.0407394 -0.0130456 -1.01525e-19)
(0.131241 -0.0323391 -2.17899e-19)
(0.235414 -0.0387289 -1.44045e-19)
(0.349677 -0.0365907 1.45688e-19)
(0.471243 -0.0271396 3.05241e-20)
(0.596731 -0.0118219 -3.20516e-19)
(0.722164 0.007526 7.66677e-20)
(0.843185 0.0289695 9.97823e-20)
(0.955389 0.0506748 6.51601e-20)
(1.05301 0.0660065 7.93794e-20)
(0.0465313 -0.0131284 6.91981e-20)
(0.14702 -0.0314609 1.92616e-19)
(0.259905 -0.0356843 1.98964e-19)
(0.381536 -0.0306904 -2.56165e-19)
(0.508884 -0.0180235 -1.90186e-19)
(0.63828 0.000539656 1.20047e-19)
(0.765476 0.0228502 2.04475e-19)
(0.885923 0.0467153 -5.34939e-20)
(0.995171 0.0700875 -2.33172e-19)
(1.08805 0.0870214 -6.5449e-20)
(0.052598 -0.0128467 4.38856e-20)
(0.163346 -0.0295895 -1.16305e-20)
(0.28495 -0.031138 -8.93347e-20)
(0.413718 -0.0229049 -1.33316e-20)
(0.546399 -0.00678315 -1.48639e-20)
(0.679068 0.0151056 1.50415e-19)
(0.807269 0.0402968 -2.5254e-19)
(0.926365 0.0663495 -1.65173e-19)
(1.03199 0.091031 -5.82212e-21)
(1.11965 0.109081 1.18691e-19)
(0.0589007 -0.0121675 1.98149e-19)
(0.1801 -0.026657 -4.25784e-20)
(0.31035 -0.0250193 -6.9496e-20)
(0.445953 -0.0131873 -9.85192e-21)
(0.583457 0.00658154 -3.45576e-20)
(0.718728 0.0318118 -1.64033e-19)
(0.847177 0.059728 1.08389e-19)
(0.964186 0.0876622 -1.5719e-19)
(1.06561 0.113239 1.06558e-19)
(1.14765 0.13188 3.05136e-19)
(0.0653947 -0.0110612 -8.61479e-20)
(0.19715 -0.0226072 -1.89458e-19)
(0.335893 -0.017278 -2.42196e-20)
(0.477955 -0.00151916 2.47437e-19)
(0.619718 0.0220364 8.31875e-20)
(0.756897 0.0505581 1.88688e-19)
(0.884855 0.0809749 3.2742e-19)
(0.9991 0.110425 7.6427e-20)
(1.09583 0.136446 8.24678e-20)
(1.172 0.15514 -2.25376e-19)
(0.0720287 -0.00950255 6.91815e-21)
(0.214351 -0.0173971 1.28853e-19)
(0.361351 -0.00788614 1.38908e-19)
(0.509428 0.0120883 -1.57803e-19)
(0.654845 0.0395136 2.08129e-19)
(0.793228 0.0712116 -1.91047e-19)
(0.919985 0.103842 -4.45333e-20)
(1.03086 0.134396 -7.11818e-20)
(1.12251 0.160388 -7.84513e-20)
(1.19266 0.178607 -1.1864e-19)
(0.0787459 -0.00747121 -8.41092e-21)
(0.231548 -0.0109988 -1.2662e-20)
(0.386484 0.00316066 -9.64075e-21)
(0.540073 0.0275942 -8.38564e-21)
(0.688504 0.0589128 4.14842e-20)
(0.827391 0.0936095 5.01782e-20)
(0.952283 0.128114 -5.60147e-20)
(1.05927 0.159324 -4.28207e-20)
(1.14556 0.18481 -4.917e-20)
(1.20965 0.202051 1.55312e-19)
(0.0854843 -0.00495275 -1.24712e-20)
(0.248574 -0.00340058 3.29736e-20)
(0.411048 0.0158422 5.48287e-20)
(0.569589 0.0449273 -1.80275e-20)
(0.720372 0.0801029 -1.37697e-19)
(0.859082 0.117562 -1.14867e-19)
(0.981505 0.153556 -5.15494e-21)
(1.08417 0.184957 9.83917e-20)
(1.16493 0.209465 -1.61341e-20)
(1.22305 0.225266 -4.30059e-20)
(0.0921774 -0.00193937 -3.06803e-20)
(0.265258 0.00539162 1.74643e-20)
(0.434793 0.0301127 -2.00693e-20)
(0.597681 0.0639872 4.67744e-21)
(0.750146 0.102924 1.70763e-20)
(0.888028 0.142858 2.51323e-20)
(1.00744 0.179924 -4.92583e-21)
(1.10546 0.211041 -5.88006e-20)
(1.18062 0.234123 3.60555e-21)
(1.23295 0.248069 2.07865e-20)
(0.0987551 0.00156943 -9.76906e-21)
(0.281424 0.0153532 -1.24061e-22)
(0.457472 0.0459005 2.89327e-21)
(0.624065 0.0846445 -2.92633e-21)
(0.777543 0.127189 2.18137e-20)
(0.913986 0.169266 7.78321e-21)
(1.02994 0.206962 4.63167e-21)
(1.12308 0.237326 -1.98129e-21)
(1.19267 0.258562 -8.81224e-21)
(1.23948 0.270296 -1.95437e-20)
(0.105145 0.00556633 -4.48349e-21)
(0.296894 0.0264403 -1.4674e-20)
(0.478841 0.0631084 1.17597e-20)
(0.648468 0.106743 -1.0921e-21)
(0.802305 0.152689 1.27929e-20)
(0.936755 0.196538 1.24454e-20)
(1.04887 0.234411 1.06864e-20)
(1.137 0.263569 -8.93545e-21)
(1.20115 0.282579 -9.56848e-21)
(1.24279 0.2918 -1.5833e-20)
(0.111274 0.0100358 -1.51901e-20)
(0.311492 0.0385896 -1.64421e-20)
(0.498667 0.081614 -1.12325e-20)
(0.670642 0.130101 -1.17152e-20)
(0.824206 0.179194 2.59207e-20)
(0.956168 0.224417 4.09009e-20)
(1.06416 0.262013 -5.5401e-21)
(1.14724 0.289535 -4.39218e-20)
(1.20617 0.305984 -7.4576e-21)
(1.24303 0.312453 -6.86448e-21)
(0.117067 0.0149537 -1.62399e-20)
(0.325046 0.0517183 8.88114e-21)
(0.516727 0.101271 2.57758e-20)
(0.690357 0.154513 1.04698e-20)
(0.843052 0.206455 -1.63041e-19)
(0.972098 0.252636 -2.20054e-20)
(1.07576 0.289509 -2.44181e-20)
(1.15385 0.314999 7.74803e-20)
(1.20785 0.328599 -3.04318e-20)
(1.24037 0.332137 -1.45569e-20)
(0.122453 0.0202876 1.74568e-20)
(0.337393 0.0657246 -4.02396e-20)
(0.532818 0.121911 -7.98972e-20)
(0.707412 0.179756 2.35714e-20)
(0.858685 0.234213 7.66171e-20)
(0.984459 0.280925 1.65177e-20)
(1.08368 0.316647 1.3353e-20)
(1.15691 0.339748 -2.98694e-20)
(1.20633 0.350262 -3.89691e-20)
(1.235 0.350749 9.55395e-20)
(0.127362 0.0259965 3.48671e-20)
(0.348379 0.0804891 1.65709e-19)
(0.546755 0.143344 2.76818e-20)
(0.721637 0.205587 -1.2147e-19)
(0.870981 0.262197 7.00664e-20)
(0.9932 0.309014 -1.21802e-20)
(1.08795 0.343181 -1.38827e-19)
(1.15653 0.36358 1.14132e-20)
(1.20176 0.370824 -3.29925e-20)
(1.2271 0.368195 -7.24524e-20)
(0.131728 0.0320315 -1.35991e-19)
(0.357867 0.0958757 -1.72641e-19)
(0.558378 0.165364 -3.29618e-20)
(0.732892 0.231751 2.97797e-19)
(0.879857 0.29013 -1.52417e-20)
(0.998311 0.336634 2.19132e-19)
(1.08863 0.368875 1.55716e-19)
(1.15282 0.386307 1.32349e-19)
(1.19433 0.390144 2.59924e-20)
(1.21685 0.384388 -8.22924e-20)
(0.135491 0.0383359 1.26772e-19)
(0.365731 0.111733 -1.35362e-19)
(0.567553 0.18775 9.21912e-20)
(0.741072 0.257982 -1.0943e-19)
(0.885264 0.317734 2.75615e-20)
(0.999816 0.363521 -1.5684e-19)
(1.08582 0.393504 1.0439e-20)
(1.14595 0.407751 -1.8731e-20)
(1.18419 0.408093 2.74342e-20)
(1.20444 0.399252 1.39645e-19)
(0.138597 0.0448464 8.07126e-21)
(0.371868 0.127898 4.60431e-20)
(0.574173 0.210268 -6.46858e-20)
(0.746107 0.284009 -2.84753e-20)
(0.887192 0.344732 -6.07649e-20)
(0.997771 0.389422 1.39011e-19)
(1.07962 0.416854 -1.8855e-19)
(1.13605 0.42775 -6.49166e-20)
(1.17151 0.424548 2.94642e-20)
(1.18998 0.412709 -4.40918e-20)
(0.140999 0.0514934 1.37031e-20)
(0.376193 0.144195 6.96868e-20)
(0.578162 0.232675 2.77632e-19)
(0.747961 0.309558 -2.3056e-19)
(0.885668 0.37085 -1.17209e-19)
(0.992267 0.414091 -6.59535e-20)
(1.07018 0.438729 1.75676e-19)
(1.12331 0.446159 6.24125e-20)
(1.15647 0.439416 -1.03747e-19)
(1.17353 0.424646 -4.05552e-20)
(0.14266 0.0582026 -4.73138e-20)
(0.378643 0.160443 -1.0717e-19)
(0.579476 0.254725 -2.07625e-19)
(0.746637 0.334353 1.79791e-19)
(0.880752 0.395822 5.58423e-21)
(0.983422 0.437297 -1.49499e-19)
(1.05767 0.458944 6.66031e-20)
(1.1079 0.462851 -5.4626e-21)
(1.13924 0.452675 4.53352e-20)
(1.15541 0.434929 -1.11067e-20)
(0.14355 0.0648954 -2.44953e-20)
(0.379179 0.176454 1.75136e-19)
(0.578102 0.276168 2.2027e-19)
(0.74217 0.358127 5.96781e-20)
(0.872539 0.419393 -4.90231e-20)
(0.971382 0.458822 2.90676e-19)
(1.04226 0.477328 -1.05707e-19)
(1.09002 0.477686 4.18732e-20)
(1.12002 0.46419 1.44719e-19)
(1.1359 0.44367 2.7125e-20)
(0.143653 0.0714907 -8.78659e-20)
(0.377785 0.192036 4.25449e-20)
(0.574058 0.296757 -1.76292e-19)
(0.734632 0.380616 -8.38946e-20)
(0.861155 0.441319 5.90927e-20)
(0.956317 0.478463 -1.96968e-21)
(1.02414 0.493729 -1.74766e-19)
(1.06984 0.490563 -9.29811e-20)
(1.09894 0.473848 -8.78393e-20)
(1.11503 0.450766 -2.91478e-20)
(0.142958 0.0779057 -5.55889e-20)
(0.37447 0.207 -1.80733e-19)
(0.567393 0.316249 1.52665e-19)
(0.724126 0.401569 -3.19276e-22)
(0.846755 0.461373 4.04993e-20)
(0.938419 0.496037 -1.23495e-19)
(1.00352 0.508012 1.54117e-19)
(1.04756 0.501393 1.01663e-19)
(1.07618 0.481591 2.51181e-20)
(1.0929 0.456125 3.81107e-21)
(0.141469 0.0840581 6.60851e-20)
(0.369265 0.221158 2.20989e-20)
(0.55819 0.334409 -1.30987e-19)
(0.710788 0.420747 2.87569e-20)
(0.829521 0.479342 -5.16836e-20)
(0.917902 0.511376 -8.17582e-20)
(0.980629 0.520057 6.05727e-21)
(1.02339 0.510095 -1.18163e-19)
(1.05189 0.487368 -1.86965e-22)
(1.06962 0.459681 3.17542e-20)
(0.139199 0.0898666 -4.01552e-20)
(0.362226 0.234328 1.84901e-19)
(0.546556 0.351013 -1.22018e-19)
(0.694778 0.437927 1.23388e-19)
(0.809659 0.495036 1.28429e-19)
(0.895001 0.524333 -1.34431e-20)
(0.955689 0.529764 -6.87107e-20)
(0.997518 0.516608 1.39518e-20)
(1.02623 0.491136 -7.23048e-22)
(1.04532 0.461372 -9.15262e-22)
(0.136166 0.0952495 3.21712e-20)
(0.353434 0.246336 -5.94887e-20)
(0.53263 0.365849 1.14189e-19)
(0.676286 0.452903 -4.76294e-20)
(0.787401 0.508279 -6.20232e-20)
(0.869963 0.534779 1.10257e-19)
(0.92895 0.537051 -1.33051e-20)
(0.970169 0.520888 1.1472e-20)
(0.999327 0.492866 -1.03303e-20)
(1.02008 0.461124 1.05183e-20)
(0.132405 0.100126 -1.82893e-20)
(0.342991 0.257016 -2.2184e-20)
(0.516571 0.378724 -3.05329e-20)
(0.655527 0.465489 -1.23595e-20)
(0.762994 0.518918 -6.69383e-20)
(0.843053 0.542604 -3.08058e-20)
(0.900674 0.54185 2.48417e-21)
(0.941564 0.522908 -3.34937e-20)
(0.971312 0.492544 1.15408e-19)
(0.993967 0.458855 6.96725e-20)
(0.127963 0.104427 2.0175e-20)
(0.331013 0.266214 -3.11607e-20)
(0.498564 0.389461 -1.15886e-20)
(0.632733 0.47552 -2.77057e-20)
(0.736702 0.526822 2.09436e-20)
(0.814548 0.547716 -1.90145e-20)
(0.871132 0.544113 -4.39153e-21)
(0.911938 0.522661 -1.42935e-20)
(0.942317 0.490172 -2.74557e-20)
(0.967082 0.454444 -1.45864e-19)
(0.12289 0.108086 -2.73698e-21)
(0.317637 0.273793 8.18342e-21)
(0.478813 0.397902 1.21436e-21)
(0.608154 0.482853 3.77112e-21)
(0.7088 0.531877 3.71995e-20)
(0.784731 0.550041 3.75982e-20)
(0.84061 0.543804 1.18551e-19)
(0.881551 0.520157 2.46786e-20)
(0.912531 0.485777 -7.19372e-20)
(0.939519 0.447788 -9.00066e-21)
(0.117245 0.111043 -7.4239e-21)
(0.303017 0.279631 -2.4864e-20)
(0.457539 0.403911 -1.65101e-20)
(0.582056 0.487367 2.06171e-20)
(0.679573 0.533994 3.3577e-20)
(0.753892 0.549522 1.96318e-21)
(0.809395 0.540899 -2.0918e-19)
(0.850705 0.51542 1.93582e-20)
(0.882341 0.47947 1.00065e-20)
(0.911207 0.439092 4.47202e-20)
(0.111093 0.113244 -5.19745e-21)
(0.287321 0.283623 2.57346e-20)
(0.434977 0.407376 -8.99661e-20)
(0.554711 0.488967 2.92349e-20)
(0.649308 0.533105 2.55096e-21)
(0.722314 0.546115 -1.59342e-19)
(0.777766 0.535371 1.61871e-19)
(0.819769 0.508437 -1.53552e-19)
(0.852507 0.471429 1.76379e-19)
(0.881764 0.427978 -1.00638e-19)
(0.10451 0.114643 8.08015e-20)
(0.270729 0.285684 8.218e-20)
(0.411375 0.408208 1.45765e-19)
(0.526402 0.487585 9.14032e-20)
(0.618294 0.529167 2.39707e-20)
(0.690267 0.539798 -2.08363e-21)
(0.745974 0.52719 -1.06701e-19)
(0.789098 0.499068 2.2261e-20)
(0.823692 0.461592 -1.80256e-19)
(0.854836 0.418076 2.38574e-19)
(0.0975716 0.115205 -4.3622e-20)
(0.253429 0.285747 -6.6769e-20)
(0.386987 0.406345 -2.21127e-19)
(0.497416 0.483176 -9.98706e-20)
(0.586817 0.522162 -2.03953e-21)
(0.658013 0.530577 3.32131e-19)
(0.714224 0.516382 2.77207e-19)
(0.758711 0.487362 2.00415e-19)
(0.795214 0.449682 4.38022e-19)
(0.827951 0.406792 2.35794e-19)
(0.090363 0.1149 -2.12489e-20)
(0.235618 0.283765 1.79626e-19)
(0.362076 0.401748 5.87988e-20)
(0.468041 0.475726 -4.87211e-20)
(0.555167 0.5121 6.10754e-20)
(0.625817 0.518481 -4.81299e-19)
(0.682738 0.502999 -2.67209e-19)
(0.728754 0.473419 -1.42244e-19)
(0.767211 0.43586 -2.65201e-19)
(0.801603 0.393949 -8.76325e-20)
(0.0829699 0.113711 -2.9029e-20)
(0.217496 0.279713 -3.23913e-19)
(0.336906 0.394406 2.55907e-20)
(0.43857 0.465244 1.25721e-19)
(0.523631 0.49901 -4.44389e-20)
(0.593943 0.503559 7.139e-20)
(0.651749 0.487097 2.38181e-19)
(0.699427 0.457313 -1.07391e-19)
(0.739907 0.420228 -3.35597e-19)
(0.776086 0.379564 -1.4107e-20)
(0.0754809 0.111628 7.20309e-20)
(0.199268 0.273587 1.00033e-19)
(0.311744 0.384332 1.39244e-19)
(0.409293 0.451765 -7.15158e-20)
(0.492493 0.482948 -2.85159e-19)
(0.562654 0.485874 -3.21529e-19)
(0.621488 0.468743 -1.24516e-19)
(0.670926 0.439099 3.88192e-19)
(0.713481 0.402824 3.30996e-19)
(0.751535 0.363647 3.80226e-19)
(0.0679858 0.108654 -2.3822e-19)
(0.181138 0.265404 3.01039e-19)
(0.286854 0.371564 -2.0622e-19)
(0.380493 0.435348 -1.82257e-19)
(0.462032 0.463986 4.14157e-19)
(0.532203 0.465508 3.83202e-19)
(0.592177 0.448013 4.77841e-19)
(0.64344 0.41884 -1.73006e-19)
(0.688094 0.383684 -1.84377e-19)
(0.728072 0.346214 -5.52331e-19)
(0.0605737 0.104799 1.74431e-19)
(0.163308 0.255199 -7.12066e-20)
(0.262495 0.356166 2.47896e-19)
(0.352448 0.416077 -2.22933e-19)
(0.432515 0.442221 -3.13618e-20)
(0.502833 0.442556 -6.61608e-19)
(0.56403 0.424997 -3.13976e-19)
(0.61715 0.396611 1.81363e-19)
(0.663896 0.362862 7.3529e-20)
(0.705812 0.327297 -7.50806e-21)
(0.0533331 0.100083 8.62758e-20)
(0.145976 0.24303 -2.33603e-19)
(0.23892 0.338224 -3.08387e-19)
(0.325426 0.394058 2.11492e-20)
(0.4042 0.417767 3.11839e-19)
(0.474778 0.417133 -2.49261e-20)
(0.537247 0.399797 -1.15411e-19)
(0.592223 0.372497 -2.08122e-19)
(0.641027 0.340422 -4.0929e-19)
(0.684859 0.306948 1.16231e-20)
(0.0463498 0.0945346 3.29269e-20)
(0.129332 0.228973 -3.18769e-20)
(0.216369 0.317847 5.00256e-19)
(0.299682 0.369421 2.00043e-19)
(0.377332 0.390759 -6.94236e-20)
(0.448257 0.389367 4.85424e-19)
(0.512017 0.372529 -2.59158e-19)
(0.568817 0.346597 3.2942e-19)
(0.619614 0.316443 1.34718e-19)
(0.665311 0.285235 -2.30556e-19)
(0.0397063 0.0881931 1.04766e-19)
(0.11356 0.213123 1.59127e-19)
(0.195075 0.295166 -5.71021e-19)
(0.275459 0.342313 -8.63949e-20)
(0.352139 0.36135 -3.93347e-19)
(0.423474 0.359403 5.37495e-20)
(0.488515 0.343323 7.01029e-20)
(0.547077 0.319023 1.12479e-19)
(0.599774 0.291018 4.18163e-19)
(0.647256 0.262237 9.02189e-20)
(0.0334813 0.0811047 -1.42563e-19)
(0.0988325 0.195592 2.04865e-19)
(0.175251 0.270332 1.39569e-20)
(0.252981 0.312907 5.50376e-20)
(0.328835 0.329711 3.90046e-19)
(0.400618 0.327403 7.32987e-21)
(0.466901 0.312323 1.05593e-19)
(0.527135 0.289895 -5.42612e-20)
(0.581616 0.26425 -2.62863e-19)
(0.630776 0.238048 -8.03859e-20)
(0.027748 0.0733244 2.81305e-19)
(0.0853092 0.176508 -2.25963e-19)
(0.157099 0.243517 2.8709e-19)
(0.232455 0.281388 -1.76366e-20)
(0.307616 0.296029 -7.8451e-21)
(0.379862 0.293539 -3.86435e-19)
(0.447323 0.279681 7.71905e-20)
(0.509112 0.259348 2.41653e-20)
(0.565238 0.236253 -1.02593e-19)
(0.615946 0.21277 4.65068e-19)
(0.0225738 0.0649141 -3.09367e-19)
(0.0731373 0.156015 1.75858e-19)
(0.1408 0.214907 -1.78913e-19)
(0.214071 0.247963 -1.07862e-19)
(0.288657 0.260507 -3.32858e-20)
(0.361363 0.257999 8.88211e-20)
(0.429912 0.245564 1.32081e-19)
(0.493118 0.227525 1.40192e-19)
(0.550728 0.20715 -2.50876e-19)
(0.602834 0.186515 -1.75724e-19)
(0.0180195 0.0559428 8.2399e-20)
(0.0624484 0.13427 -4.31069e-20)
(0.126518 0.184708 -2.76964e-20)
(0.197997 0.212851 3.38814e-19)
(0.272116 0.223359 -6.46421e-20)
(0.345256 0.22098 -7.41315e-20)
(0.414785 0.210147 1.46541e-19)
(0.479248 0.194577 -7.39217e-20)
(0.538167 0.177073 5.71997e-20)
(0.591502 0.159402 1.17901e-19)
(0.0141387 0.0464854 7.31471e-20)
(0.0533581 0.111444 -2.50516e-20)
(0.114393 0.153138 5.77712e-20)
(0.184377 0.176288 -1.86207e-19)
(0.258128 0.184813 4.38771e-20)
(0.331662 0.18269 2.98198e-19)
(0.402042 0.173612 -1.88261e-19)
(0.467587 0.160662 -3.2645e-19)
(0.527624 0.14616 -1.03808e-19)
(0.582008 0.131555 4.19818e-21)
(0.0109768 0.036622 2.33687e-20)
(0.0459644 0.087716 -7.53145e-20)
(0.104548 0.120427 1.55625e-19)
(0.173335 0.138518 -5.82383e-20)
(0.246807 0.145107 9.93328e-20)
(0.32068 0.143346 -2.47027e-19)
(0.391768 0.136151 1.29974e-19)
(0.458204 0.125946 1.15869e-19)
(0.519159 0.114554 1.85941e-19)
(0.574404 0.103104 -1.69631e-19)
(0.00857112 0.0264374 -8.1914e-20)
(0.040347 0.0632756 4.13201e-20)
(0.0970782 0.0868151 -7.01909e-20)
(0.164971 0.0997968 -9.7767e-20)
(0.238246 0.104488 -2.19206e-19)
(0.312389 0.103172 1.65351e-19)
(0.384027 0.0979581 -4.29257e-20)
(0.451155 0.0905968 1.36814e-19)
(0.512822 0.0824019 -1.26526e-19)
(0.568738 0.0741833 1.11562e-19)
(0.00694991 0.0160196 2.73165e-20)
(0.0365666 0.0383191 -9.33235e-21)
(0.0920585 0.0525519 -1.09894e-20)
(0.159359 0.0603879 8.23323e-20)
(0.232511 0.0632067 4.46075e-20)
(0.306849 0.0623958 -4.6828e-20)
(0.37887 0.0592346 -7.14317e-21)
(0.446479 0.0547848 -1.43598e-19)
(0.50865 0.0498476 1.09126e-19)
(0.565052 0.0449191 3.44689e-20)
(0.00613237 0.00545948 -6.44327e-21)
(0.0346638 0.013048 -1.50403e-20)
(0.0895381 0.0178918 -8.65609e-21)
(0.156548 0.0205601 5.93362e-21)
(0.22965 0.0215229 3.46664e-20)
(0.304097 0.0212523 6.57748e-21)
(0.376327 0.0201843 2.4076e-20)
(0.444199 0.0186827 4.56431e-20)
(0.506659 0.0170298 -4.31369e-21)
(0.56337 0.0154165 -4.91541e-20)
(0.00612828 -0.00515042 -1.1838e-20)
(0.0346595 -0.0123328 -1.78427e-20)
(0.089542 -0.0169065 3.13241e-21)
(0.156565 -0.0194139 -4.22961e-21)
(0.229683 -0.0203022 4.07423e-20)
(0.304151 -0.0200216 -1.50117e-21)
(0.376406 -0.0189854 2.52771e-20)
(0.444315 -0.0175324 4.28675e-20)
(0.50683 -0.0159115 6.91897e-21)
(0.563635 -0.014271 -5.69378e-20)
(0.00693793 -0.015717 4.69302e-20)
(0.0365539 -0.0376171 9.84283e-21)
(0.09207 -0.0515831 -2.94323e-20)
(0.159408 -0.0592597 1.09918e-19)
(0.232609 -0.0620053 1.31832e-20)
(0.307007 -0.0611869 -2.05229e-20)
(0.379104 -0.0580633 -7.75009e-21)
(0.446815 -0.0536746 -1.31206e-19)
(0.509132 -0.0488007 9.19979e-20)
(0.565759 -0.0439238 -1.42313e-20)
(0.00855208 -0.0261475 -8.96177e-20)
(0.0403271 -0.0625997 1.17413e-20)
(0.0970976 -0.0858786 -4.90192e-20)
(0.165051 -0.0987039 -1.1269e-19)
(0.238404 -0.103324 -2.29229e-19)
(0.312644 -0.102004 1.66679e-19)
(0.3844 -0.0968374 -6.6931e-22)
(0.451678 -0.0895554 1.25754e-19)
(0.513549 -0.0814608 -1.57959e-19)
(0.569745 -0.0733618 1.44877e-19)
(0.010952 -0.0363504 -9.46888e-21)
(0.045939 -0.0870777 5.5136e-21)
(0.104575 -0.119537 -5.39519e-20)
(0.173444 -0.137476 8.00644e-20)
(0.24702 -0.143997 6.19543e-20)
(0.321019 -0.142237 -2.87929e-19)
(0.392257 -0.135098 8.8982e-20)
(0.458878 -0.12499 2.48847e-19)
(0.520064 -0.113727 8.05552e-20)
(0.575596 -0.102438 -1.06679e-19)
(0.0141098 -0.0462368 -1.60772e-20)
(0.0533295 -0.110854 -6.79459e-20)
(0.11443 -0.152308 1.46232e-19)
(0.184512 -0.175311 -1.73409e-19)
(0.258388 -0.183771 -1.13982e-19)
(0.332071 -0.181652 4.35332e-19)
(0.402626 -0.172638 -3.66534e-19)
(0.468374 -0.159798 -2.19753e-19)
(0.528649 -0.145444 -7.50083e-20)
(0.583304 -0.131018 2.27513e-20)
(0.0179887 -0.0557211 1.14396e-19)
(0.0624196 -0.133736 5.56287e-20)
(0.126563 -0.183948 -4.76777e-20)
(0.198155 -0.21195 3.74821e-19)
(0.272416 -0.222395 -1.80157e-19)
(0.345722 -0.220023 4.1875e-20)
(0.41544 -0.209258 2.33475e-21)
(0.480116 -0.193806 -3.70609e-20)
(0.539267 -0.176459 9.02058e-20)
(0.592847 -0.158973 5.00207e-20)
(0.0225431 -0.0647221 -2.39647e-19)
(0.0731115 -0.155543 2.8546e-20)
(0.140857 -0.214225 -1.65713e-19)
(0.214251 -0.247146 -6.29528e-20)
(0.28899 -0.259629 5.76077e-20)
(0.361872 -0.257129 3.27745e-20)
(0.430618 -0.244765 3.20097e-20)
(0.494037 -0.226846 8.25006e-20)
(0.551868 -0.20663 -4.02653e-20)
(0.60419 -0.186175 -3.14118e-19)
(0.0277198 -0.0731637 2.47911e-19)
(0.0852899 -0.176103 -1.56932e-19)