/*--------------------------------*- C++ -*----------------------------------*\
  =========                 |
  \\      /  F ield         | OpenFOAM: The Open Source CFD Toolbox
   \\    /   O peration     | Website:  https://openfoam.org
    \\  /    A nd           | Version:  7
     \\/     M anipulation  |
\*---------------------------------------------------------------------------*/
FoamFile
{
    version     2.0;
    format      ascii;
    class       volScalarField;
    location    "5";
    object      p;
}
// * * * * * * * * * * * * * * * * * * * * * * * * * * * * * * * * * * * * * //

dimensions      [0 2 -2 0 0 0 0];

internalField   nonuniform List<scalar> 
8330
(
-0.39652
-0.397574
-0.39862
-0.399728
-0.400972
-0.396008
-0.402422
-0.397349
-0.404144
-0.398908
-0.406191
-0.400723
-0.408607
-0.402828
-0.396204
-0.411421
-0.405247
-0.398338
-0.414662
-0.407993
-0.400813
-0.392745
-0.418348
-0.41107
-0.403624
-0.395132
-0.422485
-0.414483
-0.406763
-0.397793
-0.427073
-0.418235
-0.410217
-0.400695
-0.392826
-0.432105
-0.422328
-0.413972
-0.403817
-0.395192
-0.437574
-0.426763
-0.418014
-0.407145
-0.397677
-0.388293
-0.44347
-0.431544
-0.422328
-0.410675
-0.400231
-0.389109
-0.376626
-0.449784
-0.436671
-0.426905
-0.414403
-0.402793
-0.389737
-0.375055
-0.456505
-0.442141
-0.431737
-0.418314
-0.405298
-0.390137
-0.373246
-0.355298
-0.463622
-0.447943
-0.436821
-0.422378
-0.40768
-0.390274
-0.371189
-0.351419
-0.331606
-0.47112
-0.454059
-0.442156
-0.426544
-0.409881
-0.390122
-0.368878
-0.347388
-0.32633
-0.305997
-0.478978
-0.460466
-0.447735
-0.430742
-0.411843
-0.389656
-0.366307
-0.3432
-0.320992
-0.299885
-0.279778
-0.487168
-0.467131
-0.453541
-0.43489
-0.413515
-0.388856
-0.363468
-0.338845
-0.315577
-0.293764
-0.273257
-0.253995
-0.495651
-0.474016
-0.459536
-0.438898
-0.414849
-0.3877
-0.360351
-0.334309
-0.310065
-0.287609
-0.266741
-0.247286
-0.228666
-0.504374
-0.481079
-0.465661
-0.442677
-0.415798
-0.386171
-0.356944
-0.329578
-0.304436
-0.281395
-0.260202
-0.240581
-0.222039
-0.205484
-0.513269
-0.488272
-0.471829
-0.446142
-0.416316
-0.384247
-0.353233
-0.324636
-0.298668
-0.2751
-0.253617
-0.233858
-0.215403
-0.198923
-0.522255
-0.495543
-0.477931
-0.449212
-0.416361
-0.381908
-0.349203
-0.319465
-0.292742
-0.268698
-0.246962
-0.227093
-0.20874
-0.192338
-0.531234
-0.502829
-0.483839
-0.451809
-0.415891
-0.379132
-0.344836
-0.314044
-0.286635
-0.262169
-0.240215
-0.220267
-0.20203
-0.185712
-0.5401
-0.510057
-0.489415
-0.453859
-0.414866
-0.375895
-0.340114
-0.308355
-0.280327
-0.255491
-0.233358
-0.213362
-0.195257
-0.179032
-0.548735
-0.517143
-0.494517
-0.45529
-0.413248
-0.372175
-0.335015
-0.302377
-0.273796
-0.248644
-0.22637
-0.20636
-0.188406
-0.172285
-0.557015
-0.523988
-0.499007
-0.456033
-0.411001
-0.367948
-0.32952
-0.296089
-0.267025
-0.24161
-0.219235
-0.199246
-0.181461
-0.165458
-0.564813
-0.530479
-0.502755
-0.456022
-0.408089
-0.363188
-0.323607
-0.289472
-0.259993
-0.23437
-0.211938
-0.192006
-0.174411
-0.158541
-0.572002
-0.536491
-0.505643
-0.455192
-0.404481
-0.357873
-0.317257
-0.282507
-0.252684
-0.22691
-0.204463
-0.184627
-0.167244
-0.151526
-0.578453
-0.541888
-0.507563
-0.453486
-0.400144
-0.35198
-0.310448
-0.275176
-0.24508
-0.219214
-0.196799
-0.177098
-0.15995
-0.144404
-0.584042
-0.546526
-0.508422
-0.450849
-0.39505
-0.345488
-0.303162
-0.267462
-0.237168
-0.211268
-0.188935
-0.169408
-0.15252
-0.137174
-0.588649
-0.550261
-0.508139
-0.447235
-0.389173
-0.338375
-0.295381
-0.259349
-0.228933
-0.203063
-0.180859
-0.161548
-0.144948
-0.129833
-0.592155
-0.552946
-0.506644
-0.442601
-0.382487
-0.330623
-0.287089
-0.250824
-0.220365
-0.194587
-0.172564
-0.15351
-0.137226
-0.12238
-0.594451
-0.554445
-0.503878
-0.436912
-0.374971
-0.322216
-0.278272
-0.241874
-0.211452
-0.185834
-0.164044
-0.145288
-0.12935
-0.1148
-0.595433
-0.554627
-0.499791
-0.430141
-0.366608
-0.31314
-0.268918
-0.23249
-0.202189
-0.176795
-0.155291
-0.136879
-0.121323
-0.107061
-0.595003
-0.553379
-0.49434
-0.422265
-0.357382
-0.303383
-0.259017
-0.222665
-0.192568
-0.167465
-0.146299
-0.128279
-0.113162
-0.0991303
-0.593072
-0.550602
-0.487488
-0.413268
-0.347281
-0.292936
-0.248561
-0.212394
-0.182585
-0.157837
-0.137064
-0.119482
-0.10487
-0.0910383
-0.589559
-0.546211
-0.479208
-0.403137
-0.3363
-0.281794
-0.237549
-0.201669
-0.172232
-0.147912
-0.127592
-0.110496
-0.096382
-0.0828806
-0.584391
-0.540137
-0.469481
-0.391869
-0.324433
-0.269954
-0.225977
-0.190484
-0.161495
-0.137705
-0.117894
-0.101345
-0.0876878
-0.0746282
-0.577505
-0.532328
-0.458296
-0.379463
-0.311684
-0.257415
-0.213836
-0.178837
-0.150384
-0.127238
-0.107963
-0.0920072
-0.0788258
-0.0662594
-0.568847
-0.522746
-0.445653
-0.365925
-0.298055
-0.244173
-0.201112
-0.166759
-0.138986
-0.116439
-0.0978008
-0.0824799
-0.0698127
-0.0577687
-0.558374
-0.511368
-0.431556
-0.351267
-0.283552
-0.23023
-0.187818
-0.154299
-0.127219
-0.105355
-0.0874118
-0.0727678
-0.0606559
-0.0491596
-0.546053
-0.498185
-0.416021
-0.335502
-0.268181
-0.21561
-0.174068
-0.141353
-0.115101
-0.0939988
-0.0768041
-0.0628785
-0.0513601
-0.0404388
-0.531862
-0.483202
-0.39907
-0.31865
-0.251949
-0.200366
-0.159785
-0.127985
-0.102644
-0.0823802
-0.0659869
-0.0528209
-0.041931
-0.0316147
-0.515793
-0.466438
-0.380729
-0.300737
-0.234893
-0.184495
-0.144987
-0.114213
-0.0898627
-0.0705092
-0.0549708
-0.0426045
-0.0323759
-0.0226967
-0.497846
-0.447923
-0.361034
-0.281799
-0.217083
-0.16797
-0.129692
-0.100055
-0.0767737
-0.0583985
-0.0437676
-0.0322402
-0.0227038
-0.0136951
-0.478037
-0.427697
-0.34003
-0.261876
-0.198521
-0.15084
-0.113924
-0.085529
-0.0633944
-0.0460623
-0.0323906
-0.0217394
-0.0129253
-0.0046214
-0.456394
-0.405809
-0.317765
-0.241013
-0.17923
-0.133139
-0.097708
-0.0706562
-0.0497438
-0.0335171
-0.0208544
-0.0111148
-0.00305201
0.00451175
-0.432956
-0.38234
-0.294272
-0.219248
-0.159247
-0.114901
-0.0810725
-0.0554596
-0.0358428
-0.0207808
-0.00917498
-0.000380092
0.00690287
0.0136901
-0.407783
-0.357424
-0.269542
-0.196612
-0.138615
-0.0961612
-0.0640484
-0.0399651
-0.0217138
-0.00787307
0.00263053
0.01045
0.0169247
0.022897
-0.380946
-0.331213
-0.24357
-0.173141
-0.117382
-0.0769597
-0.046669
-0.0242004
-0.00738088
0.00518505
0.0145438
0.0213595
0.0269965
0.0321122
-0.352517
-0.303656
-0.216571
-0.148897
-0.0956003
-0.0573394
-0.0289699
-0.00819562
0.00713023
0.0183712
0.0265454
0.0323316
0.0371
0.0413112
-0.322573
-0.274427
-0.189035
-0.123985
-0.0733197
-0.0373451
-0.0109892
0.00801745
0.0217923
0.0316618
0.0386148
0.0433493
0.0472183
0.0504692
-0.291223
-0.243898
-0.160796
-0.0984896
-0.0505961
-0.0170237
0.0072335
0.0244052
0.0365767
0.0450315
0.0507301
0.0543962
0.0573393
0.0595676
-0.258563
-0.21224
-0.131849
-0.0724863
-0.0274894
0.00357578
0.0256563
0.0409325
0.0514533
0.058454
0.0628687
0.0654586
0.0674535
0.0685831
-0.224628
-0.179691
-0.102257
-0.0460482
-0.00406193
0.0244021
0.0442358
0.0575627
0.0663907
0.0719016
0.0750105
0.0765283
0.077535
0.0774084
-0.189586
-0.146371
-0.0721068
-0.019249
0.0196221
0.0454021
0.0629271
0.0742579
0.0813562
0.085347
0.0871409
0.0876005
0.0875115
0.0857566
-0.1536
-0.112376
-0.0414979
0.00783415
0.0434964
0.0665205
0.0816837
0.0909786
0.0963156
0.098764
0.0992485
0.0986566
0.0972631
0.0933956
-0.116811
-0.0778191
-0.0105337
0.0351211
0.0674931
0.0877007
0.100458
0.107684
0.111234
0.112127
0.111314
0.109637
0.106703
0.100876
-0.0793651
-0.0428271
0.0206796
0.062529
0.0915427
0.108885
0.119201
0.124333
0.126078
0.125409
0.123301
0.120449
0.115837
0.109675
-0.0414124
-0.00753008
0.0520333
0.089973
0.115574
0.130013
0.137863
0.140883
0.140811
0.138581
0.135162
0.131059
0.125035
0.118816
-0.00310814
0.0279383
0.0834178
0.117366
0.139516
0.151026
0.156393
0.157292
0.155399
0.151611
0.146867
0.141494
0.134292
0.127842
0.0353904
0.0634429
0.114723
0.144622
0.163295
0.171863
0.174741
0.173516
0.169806
0.164466
0.158386
0.15176
0.14353
0.136691
0.0739239
0.0988476
0.145837
0.17165
0.186838
0.192463
0.192855
0.189512
0.183994
0.177111
0.169695
0.161847
0.152666
0.145297
0.112332
0.134016
0.176652
0.198363
0.210072
0.212764
0.210684
0.205238
0.197928
0.189516
0.180773
0.171735
0.161648
0.153649
0.150456
0.168813
0.207056
0.224673
0.232924
0.232707
0.228176
0.220651
0.21157
0.201647
0.191593
0.1814
0.170432
0.161741
0.188136
0.203102
0.236942
0.250491
0.255321
0.252229
0.245282
0.235707
0.224884
0.213475
0.202133
0.190817
0.178987
0.169566
0.225216
0.23675
0.266203
0.275732
0.277192
0.271273
0.261951
0.250364
0.237834
0.224968
0.212366
0.19996
0.187288
0.177115
0.261542
0.269624
0.294733
0.300309
0.298466
0.289778
0.278133
0.264581
0.250384
0.236097
0.222266
0.208805
0.195313
0.18438
0.29696
0.301598
0.32243
0.324139
0.319073
0.307687
0.293781
0.278317
0.2625
0.246833
0.23181
0.217329
0.203041
0.191349
0.331323
0.332546
0.349195
0.347141
0.338948
0.324944
0.308847
0.291532
0.274148
0.257146
0.240973
0.22551
0.210454
0.19801
0.364485
0.362348
0.374931
0.369237
0.358023
0.341496
0.323286
0.304188
0.285296
0.26701
0.24973
0.233327
0.217533
0.204351
0.396308
0.39089
0.399544
0.39035
0.376237
0.357288
0.337053
0.316247
0.295912
0.276397
0.258059
0.240759
0.224261
0.21036
0.426658
0.418061
0.422946
0.410408
0.393529
0.372271
0.350107
0.327675
0.305967
0.285282
0.265939
0.247789
0.230622
0.216027
0.455407
0.443756
0.445052
0.429341
0.409842
0.386398
0.362407
0.338438
0.31543
0.293641
0.273347
0.254397
0.2366
0.221338
0.482435
0.467875
0.465782
0.447084
0.425121
0.399622
0.373916
0.348502
0.324275
0.30145
0.280266
0.260566
0.242179
0.226283
0.507628
0.490326
0.48506
0.463575
0.439315
0.411901
0.384597
0.357838
0.332478
0.308687
0.286675
0.266281
0.247346
0.230853
0.530882
0.511022
0.502818
0.478758
0.452376
0.423195
0.394417
0.366419
0.340012
0.315334
0.292558
0.271526
0.252087
0.235038
0.552097
0.529883
0.51899
0.492578
0.464262
0.433468
0.403346
0.374217
0.346858
0.32137
0.2979
0.276288
0.25639
0.238829
0.571187
0.546837
0.533518
0.504989
0.474931
0.442687
0.411356
0.381211
0.352995
0.326779
0.302685
0.280553
0.260244
0.242218
0.58807
0.561818
0.546349
0.515945
0.484348
0.450821
0.418421
0.387378
0.358405
0.331546
0.3069
0.28431
0.263639
0.245199
0.602676
0.574769
0.557437
0.525411
0.49248
0.457845
0.42452
0.392699
0.363072
0.335657
0.310535
0.287549
0.266565
0.247765
0.614944
0.585641
0.56674
0.533351
0.499301
0.463734
0.429633
0.39716
0.366984
0.339101
0.31358
0.290262
0.269016
0.249911
0.624823
0.59439
0.574225
0.539738
0.504787
0.46847
0.433744
0.400746
0.370127
0.341869
0.316025
0.292441
0.270984
0.251633
0.632271
0.600985
0.579865
0.54455
0.50892
0.472037
0.436839
0.403445
0.372493
0.343952
0.317866
0.29408
0.272464
0.252925
0.637257
0.605398
0.583639
0.54777
0.511685
0.474423
0.43891
0.405251
0.374076
0.345345
0.319096
0.295176
0.273453
0.253788
0.639761
0.607613
0.585534
0.549386
0.513072
0.47562
0.439949
0.406156
0.374869
0.346043
0.319713
0.295726
0.273952
0.254234
0.639771
0.607622
0.585542
0.549393
0.513078
0.475624
0.439952
0.406159
0.374871
0.346044
0.319714
0.295728
0.273954
0.25424
0.637288
0.605425
0.583663
0.54779
0.511701
0.474435
0.43892
0.405258
0.374081
0.345348
0.319099
0.295178
0.273455
0.253789
0.632322
0.601028
0.579903
0.544582
0.508946
0.472057
0.436855
0.403457
0.372501
0.343957
0.317868
0.294081
0.272463
0.252921
0.624893
0.594451
0.574277
0.539782
0.504823
0.468497
0.433765
0.40076
0.370136
0.341874
0.316027
0.29244
0.270981
0.251625
0.615032
0.585717
0.566805
0.533405
0.499345
0.463768
0.429658
0.397177
0.366994
0.339106
0.31358
0.290259
0.269011
0.249899
0.602781
0.57486
0.557514
0.525474
0.492531
0.457883
0.424548
0.392717
0.363082
0.33566
0.310534
0.287545
0.266558
0.24775
0.58819
0.561921
0.546437
0.516017
0.484404
0.450864
0.418451
0.387396
0.358414
0.331548
0.306897
0.284304
0.26363
0.245181
0.57132
0.546951
0.533615
0.505067
0.474992
0.442732
0.411387
0.381229
0.353003
0.326779
0.30268
0.280546
0.260234
0.242197
0.552242
0.530007
0.519095
0.492662
0.464326
0.433515
0.403377
0.374235
0.346865
0.321369
0.297894
0.27628
0.25638
0.238805
0.531035
0.511153
0.502929
0.478845
0.452443
0.423242
0.394448
0.366435
0.340018
0.315332
0.292552
0.271519
0.252077
0.235012
0.507789
0.490464
0.485176
0.463666
0.439383
0.411948
0.384627
0.357854
0.332483
0.308685
0.286669
0.266274
0.247336
0.230826
0.482601
0.468017
0.4659
0.447176
0.425189
0.399669
0.373945
0.348517
0.32428
0.301448
0.280259
0.26056
0.24217
0.226254
0.455576
0.443901
0.445172
0.429434
0.40991
0.386444
0.362436
0.338452
0.315435
0.293639
0.273342
0.254392
0.236591
0.221307
0.426828
0.418208
0.423067
0.410501
0.393597
0.372317
0.350135
0.32769
0.305971
0.285281
0.265934
0.247785
0.230615
0.215995
0.396478
0.391037
0.399664
0.390442
0.376304
0.357333
0.337081
0.316262
0.295918
0.276397
0.258055
0.240757
0.224256
0.210327
0.364653
0.362494
0.37505
0.369328
0.358089
0.34154
0.323313
0.304202
0.285303
0.267011
0.249727
0.233326
0.217529
0.204317
0.331487
0.332689
0.349312
0.34723
0.339012
0.324988
0.308874
0.291547
0.274156
0.257148
0.240972
0.225511
0.210452
0.197975
0.297119
0.301738
0.322545
0.324226
0.319136
0.30773
0.293808
0.278332
0.262509
0.246836
0.231811
0.217331
0.203041
0.191314
0.261695
0.26976
0.294844
0.300393
0.298527
0.28982
0.278161
0.264597
0.250394
0.236102
0.222269
0.208809
0.195315
0.184345
0.225363
0.23688
0.26631
0.275813
0.277252
0.271314
0.261979
0.250382
0.237845
0.224975
0.212369
0.199966
0.187292
0.17708
0.188275
0.203227
0.237045
0.25057
0.25538
0.25227
0.24531
0.235726
0.224897
0.213484
0.202138
0.190825
0.178994
0.169531
0.150586
0.168932
0.207155
0.224749
0.232981
0.232747
0.228205
0.220671
0.211585
0.201658
0.191601
0.181411
0.170442
0.161707
0.112454
0.134128
0.176746
0.198436
0.210127
0.212805
0.210713
0.20526
0.197944
0.189528
0.180782
0.171747
0.161662
0.153618
0.0740365
0.0989528
0.145927
0.17172
0.186892
0.192503
0.192885
0.189535
0.184012
0.177125
0.169706
0.161861
0.152686
0.14527
0.0354938
0.063541
0.114807
0.144689
0.163347
0.171903
0.174771
0.173539
0.169825
0.164482
0.158398
0.151776
0.143556
0.136671
-0.00301399
0.0280293
0.0834972
0.117431
0.139567
0.151066
0.156424
0.157316
0.15542
0.151629
0.146881
0.141511
0.134325
0.127838
-0.0413275
-0.00744637
0.0521078
0.0900342
0.115624
0.130053
0.137894
0.140909
0.140833
0.138601
0.135179
0.131077
0.125075
0.118843
-0.0792893
-0.0427505
0.0207492
0.0625873
0.0915909
0.108924
0.119233
0.12436
0.126101
0.125431
0.123319
0.120466
0.115881
0.109754
-0.116744
-0.0777496
-0.0104689
0.0351765
0.06754
0.0877397
0.100491
0.107712
0.111259
0.11215
0.111336
0.109656
0.106745
0.100998
-0.153542
-0.112313
-0.0414379
0.00788675
0.0435419
0.0665592
0.0817167
0.0910068
0.0963408
0.0987881
0.0992723
0.0986779
0.0972986
0.0934947
-0.189535
-0.146316
-0.0720514
-0.0191991
0.0196662
0.0454404
0.0629603
0.0742868
0.0813821
0.0853719
0.087166
0.0876236
0.0875407
0.0858224
-0.224586
-0.179641
-0.102206
-0.046001
-0.00401921
0.02444
0.0442691
0.0575921
0.0664172
0.071927
0.0750361
0.0765522
0.077561
0.0774559
-0.258528
-0.212197
-0.131803
-0.0724419
-0.0274481
0.00361311
0.0256896
0.0409622
0.0514802
0.0584796
0.0628943
0.0654828
0.0674784
0.0686229
-0.291195
-0.243861
-0.160753
-0.0984477
-0.0505562
-0.016987
0.00726667
0.024435
0.0366039
0.0450573
0.0507556
0.0544204
0.0573638
0.0596028
-0.322552
-0.274396
-0.188997
-0.123946
-0.0732812
-0.0373091
-0.0109562
0.00804731
0.0218196
0.0316875
0.0386401
0.0433733
0.047242
0.0505006
-0.352501
-0.30363
-0.216536
-0.148861
-0.0955634
-0.0573041
-0.0289373
-0.00816584
0.00715757
0.0183969
0.0265704
0.0323553
0.0371229
0.0413393
-0.380935
-0.331192
-0.243539
-0.173106
-0.117347
-0.0769252
-0.0466368
-0.0241708
-0.00735365
0.00521057
0.0145684
0.0213828
0.0270187
0.0321377
-0.407777
-0.357408
-0.269514
-0.196581
-0.138581
-0.0961276
-0.0640167
-0.0399358
-0.0216868
-0.00784781
0.00265476
0.0104729
0.0169462
0.0229206
-0.432955
-0.382329
-0.294248
-0.219218
-0.159215
-0.114868
-0.0810414
-0.0554307
-0.0358161
-0.0207558
-0.00915116
-0.00035757
0.00692392
0.0137122
-0.456397
-0.405802
-0.317745
-0.240985
-0.179199
-0.133107
-0.0976776
-0.0706277
-0.0497175
-0.0334925
-0.020831
-0.0110926
-0.00303137
0.00453264
-0.478044
-0.427693
-0.340013
-0.261851
-0.198491
-0.150809
-0.113894
-0.085501
-0.0633684
-0.0460381
-0.0323676
-0.0217176
-0.012905
-0.00460149
-0.497856
-0.447923
-0.36102
-0.281776
-0.217055
-0.167941
-0.129663
-0.100027
-0.0767482
-0.0583747
-0.043745
-0.0322188
-0.0226839
-0.013676
-0.515805
-0.466441
-0.380717
-0.300716
-0.234866
-0.184467
-0.144959
-0.114186
-0.0898377
-0.0704858
-0.0549486
-0.0425835
-0.0323563
-0.0226783
-0.531877
-0.483207
-0.39906
-0.318631
-0.251924
-0.200339
-0.159758
-0.127959
-0.102619
-0.0823572
-0.0659651
-0.0528001
-0.0419117
-0.0315968
-0.54607
-0.498192
-0.416014
-0.335485
-0.268157
-0.215583
-0.174041
-0.141328
-0.115077
-0.0939762
-0.0767827
-0.0628581
-0.0513411
-0.0404213
-0.558393
-0.511377
-0.431551
-0.351251
-0.28353
-0.230205
-0.187793
-0.154274
-0.127196
-0.105333
-0.0873908
-0.0727477
-0.0606371
-0.0491426
-0.568867
-0.522757
-0.445649
-0.365911
-0.298034
-0.244149
-0.201088
-0.166735
-0.138963
-0.116417
-0.0977801
-0.0824601
-0.0697942
-0.0577521
-0.577526
-0.53234
-0.458295
-0.37945
-0.311664
-0.257392
-0.213812
-0.178814
-0.150362
-0.127217
-0.107943
-0.0919877
-0.0788075
-0.0662431
-0.584412
-0.54015
-0.469481
-0.391858
-0.324415
-0.269932
-0.225954
-0.190461
-0.161473
-0.137684
-0.117874
-0.101326
-0.0876698
-0.0746121
-0.58958
-0.546224
-0.479209
-0.403128
-0.336283
-0.281772
-0.237527
-0.201647
-0.17221
-0.147892
-0.127572
-0.110477
-0.0963642
-0.0828648
-0.593093
-0.550616
-0.487491
-0.413259
-0.347265
-0.292916
-0.24854
-0.212372
-0.182565
-0.157818
-0.137045
-0.119464
-0.104853
-0.0910226
-0.595024
-0.553393
-0.494344
-0.422258
-0.357367
-0.303364
-0.258996
-0.222644
-0.192548
-0.167446
-0.14628
-0.12826
-0.113145
-0.0991149
-0.595454
-0.554641
-0.499796
-0.430135
-0.366594
-0.313122
-0.268898
-0.23247
-0.202169
-0.176776
-0.155272
-0.136861
-0.121306
-0.107046
-0.594471
-0.554458
-0.503883
-0.436907
-0.374958
-0.322199
-0.278253
-0.241855
-0.211433
-0.185815
-0.164026
-0.14527
-0.129333
-0.114785
-0.592175
-0.55296
-0.506649
-0.442596
-0.382475
-0.330606
-0.287071
-0.250805
-0.220346
-0.194569
-0.172547
-0.153493
-0.13721
-0.122365
-0.588667
-0.550273
-0.508144
-0.447231
-0.389161
-0.338359
-0.295363
-0.259331
-0.228915
-0.203045
-0.180842
-0.161531
-0.144932
-0.129818
-0.58406
-0.546538
-0.508428
-0.450846
-0.39504
-0.345473
-0.303145
-0.267444
-0.23715
-0.211251
-0.188918
-0.169391
-0.152504
-0.137159
-0.57847
-0.541899
-0.507568
-0.453483
-0.400134
-0.351966
-0.310431
-0.275159
-0.245063
-0.219197
-0.196783
-0.177081
-0.159934
-0.14439
-0.572017
-0.536501
-0.505648
-0.455189
-0.404472
-0.35786
-0.317241
-0.282491
-0.252667
-0.226893
-0.204447
-0.184611
-0.167228
-0.151511
-0.564827
-0.530488
-0.50276
-0.456019
-0.408081
-0.363175
-0.323592
-0.289456
-0.259977
-0.234354
-0.211922
-0.19199
-0.174396
-0.158527
-0.557027
-0.523996
-0.499012
-0.456031
-0.410992
-0.367935
-0.329505
-0.296073
-0.267009
-0.241594
-0.219219
-0.199231
-0.181446
-0.165444
-0.548746
-0.51715
-0.494521
-0.455288
-0.41324
-0.372164
-0.335001
-0.302361
-0.273781
-0.248629
-0.226355
-0.206345
-0.188391
-0.172271
-0.54011
-0.510063
-0.489418
-0.453857
-0.414859
-0.375884
-0.3401
-0.30834
-0.280311
-0.255476
-0.233343
-0.213347
-0.195243
-0.179019
-0.531243
-0.502834
-0.483841
-0.451807
-0.415884
-0.379121
-0.344823
-0.31403
-0.28662
-0.262154
-0.240201
-0.220253
-0.202016
-0.185699
-0.522262
-0.495547
-0.477933
-0.44921
-0.416355
-0.381898
-0.34919
-0.319451
-0.292727
-0.268684
-0.246947
-0.227079
-0.208726
-0.192324
-0.513275
-0.488276
-0.47183
-0.44614
-0.41631
-0.384237
-0.353221
-0.324623
-0.298654
-0.275085
-0.253603
-0.233843
-0.215389
-0.19891
-0.504379
-0.481081
-0.465662
-0.442675
-0.415792
-0.386162
-0.356932
-0.329565
-0.304422
-0.281381
-0.260188
-0.240567
-0.222025
-0.205471
-0.495655
-0.474017
-0.459536
-0.438895
-0.414844
-0.387692
-0.36034
-0.334296
-0.310051
-0.287595
-0.266727
-0.247272
-0.228652
-0.487171
-0.467132
-0.45354
-0.434887
-0.41351
-0.388847
-0.363458
-0.338832
-0.315564
-0.29375
-0.273244
-0.47898
-0.460467
-0.447734
-0.43074
-0.411838
-0.389649
-0.366297
-0.343189
-0.320979
-0.299872
-0.471121
-0.454059
-0.442155
-0.426541
-0.409876
-0.390115
-0.368869
-0.347377
-0.326317
-0.305984
-0.463622
-0.447942
-0.436819
-0.422375
-0.407676
-0.390267
-0.37118
-0.351408
-0.331594
-0.456505
-0.44214
-0.431735
-0.41831
-0.405293
-0.39013
-0.373237
-0.355288
-0.449783
-0.43667
-0.426903
-0.414399
-0.402788
-0.389731
-0.375047
-0.443468
-0.431542
-0.422326
-0.410672
-0.400226
-0.389103
-0.376618
-0.437572
-0.426761
-0.418011
-0.407142
-0.397672
-0.388287
-0.432103
-0.422325
-0.413969
-0.403813
-0.395187
-0.42707
-0.418232
-0.410213
-0.400691
-0.392821
-0.422482
-0.41448
-0.406759
-0.397789
-0.418344
-0.411067
-0.40362
-0.395128
-0.414658
-0.407989
-0.400809
-0.411417
-0.405244
-0.398334
-0.408603
-0.402824
-0.3962
-0.406188
-0.40072
-0.40414
-0.398904
-0.402418
-0.397345
-0.400968
-0.399724
-0.398615
-0.39757
-0.396516
-0.128673
-0.135573
-0.142387
-0.149118
-0.155771
-0.162355
-0.168877
-0.175347
-0.181776
-0.188177
-0.194561
-0.125153
-0.131839
-0.138443
-0.144968
-0.151422
-0.157809
-0.164138
-0.170417
-0.176655
-0.182862
-0.189051
-0.121687
-0.128135
-0.134505
-0.1408
-0.147027
-0.153189
-0.159295
-0.16535
-0.171364
-0.177344
-0.1833
-0.118245
-0.12447
-0.130622
-0.136705
-0.142724
-0.148683
-0.154587
-0.160444
-0.166259
-0.172041
-0.177799
-0.114842
-0.120851
-0.126792
-0.13267
-0.138488
-0.144249
-0.149961
-0.155627
-0.161254
-0.166849
-0.172419
-0.111484
-0.117278
-0.12301
-0.128682
-0.134298
-0.139861
-0.145377
-0.150849
-0.156284
-0.161687
-0.167065
-0.10817
-0.113752
-0.119275
-0.124742
-0.130156
-0.13552
-0.140838
-0.146114
-0.151353
-0.15656
-0.161742
-0.104901
-0.110272
-0.115588
-0.120852
-0.126065
-0.13123
-0.136351
-0.141432
-0.146475
-0.151486
-0.15647
-0.101675
-0.106839
-0.111952
-0.117015
-0.122029
-0.126997
-0.131923
-0.136808
-0.141657
-0.146472
-0.151259
-0.0984961
-0.103456
-0.108368
-0.113232
-0.11805
-0.122823
-0.127554
-0.132246
-0.136902
-0.141524
-0.146115
-0.0953638
-0.100124
-0.104838
-0.109506
-0.11413
-0.11871
-0.12325
-0.127751
-0.132215
-0.136645
-0.141043
-0.0922797
-0.0968433
-0.101363
-0.105839
-0.110272
-0.114663
-0.119014
-0.123326
-0.127601
-0.131841
-0.136048
-0.0892451
-0.0936167
-0.0979465
-0.102234
-0.106479
-0.110684
-0.114848
-0.118975
-0.123063
-0.127117
-0.131137
-0.0862618
-0.090446
-0.09459
-0.0986927
-0.102754
-0.106776
-0.110758
-0.114702
-0.118608
-0.122478
-0.126314
-0.0833308
-0.0873327
-0.0912953
-0.0952177
-0.0991001
-0.102943
-0.106747
-0.110512
-0.114239
-0.11793
-0.121585
-0.0804525
-0.0842782
-0.0880644
-0.0918113
-0.095519
-0.0991875
-0.102817
-0.106408
-0.109961
-0.113477
-0.116956
-0.0776325
-0.0812862
-0.0849006
-0.0884767
-0.0920143
-0.0955132
-0.0989733
-0.102395
-0.105778
-0.109123
-0.112431
-0.0748713
-0.0783581
-0.0818061
-0.0852165
-0.0885891
-0.0919232
-0.0952187
-0.0984756
-0.101694
-0.104874
-0.108015
-0.072171
-0.0754959
-0.0787831
-0.0820332
-0.0852459
-0.0884206
-0.0915567
-0.0946541
-0.0977128
-0.100733
-0.103714
-0.0695333
-0.0727021
-0.0758341
-0.0789295
-0.0819879
-0.0850084
-0.0879906
-0.0909341
-0.0938386
-0.0967041
-0.0995303
-0.066961
-0.0699794
-0.0729619
-0.0759082
-0.0788177
-0.0816898
-0.0845237
-0.0873189
-0.0900751
-0.0927919
-0.0954691
-0.0644562
-0.0673301
-0.0701688
-0.0729718
-0.0757384
-0.0784679
-0.0811593
-0.083812
-0.0864257
-0.0889998
-0.0915341
-0.0620213
-0.0647568
-0.0674576
-0.0701233
-0.072753
-0.0753456
-0.0779005
-0.0804168
-0.082894
-0.0853316
-0.0877291
-0.0596591
-0.0622622
-0.0648312
-0.0673656
-0.0698643
-0.0723263
-0.0747506
-0.0771366
-0.0794835
-0.0817907
-0.0840577
-0.0573723
-0.0598492
-0.0622926
-0.0647017
-0.0670755
-0.069413
-0.071713
-0.0739747
-0.0761975
-0.0783806
-0.0805236
-0.0551641
-0.0575208
-0.0598447
-0.0621348
-0.0643899
-0.0666089
-0.0687908
-0.0709346
-0.0730396
-0.075105
-0.0771302
-0.0530379
-0.0552806
-0.057491
-0.0596682
-0.0618109
-0.0639177
-0.0659876
-0.0680197
-0.0700132
-0.0719672
-0.0738812
-0.0509964
-0.0531313
-0.0552346
-0.0573052
-0.0593415
-0.0613424
-0.0633067
-0.0652335
-0.0671218
-0.0689709
-0.07078
-0.04904
-0.0510744
-0.0530781
-0.0550489
-0.0569855
-0.0588869
-0.060752
-0.0625798
-0.0643694
-0.0661199
-0.0678307
-0.0471748
-0.0491178
-0.051028
-0.0529049
-0.0547478
-0.0565559
-0.0583279
-0.060063
-0.0617601
-0.0634184
-0.0650371
-0.0454121
-0.047266
-0.049088
-0.050877
-0.0526325
-0.0543535
-0.0560387
-0.0576873
-0.0592982
-0.0608705
-0.0624037
-0.0437539
-0.0455242
-0.0472635
-0.0489707
-0.0506448
-0.0522847
-0.0538894
-0.0554576
-0.0569885
-0.0584813
-0.0599351
-0.0422026
-0.0438962
-0.0455593
-0.0471909
-0.0487898
-0.0503549
-0.051885
-0.0533792
-0.0548365
-0.0562559
-0.0576368
-0.0407644
-0.0423876
-0.043981
-0.0455432
-0.0470731
-0.0485696
-0.0500316
-0.051458
-0.0528478
-0.0542003
-0.0555145
-0.0394454
-0.0410048
-0.0425348
-0.0440339
-0.0455012
-0.0469355
-0.0483356
-0.0497005
-0.0510294
-0.0523212
-0.0535752
-0.038253
-0.039755
-0.041228
-0.0426706
-0.0440816
-0.04546
-0.0468047
-0.0481145
-0.0493887
-0.0506263
-0.0518266
-0.0371953
-0.0386465
-0.040069
-0.0414614
-0.0428227
-0.0441517
-0.0454474
-0.0467088
-0.0479348
-0.0491247
-0.0502777
-0.0362818
-0.0376889
-0.0390675
-0.0404165
-0.0417347
-0.0430209
-0.0442743
-0.0454937
-0.0466783
-0.0478272
-0.0489396
-0.0355224
-0.0368921
-0.0382336
-0.0395459
-0.0408278
-0.0420781
-0.043296
-0.0444803
-0.0456303
-0.046745
-0.0478237
-0.0349331
-0.0362726
-0.0375842
-0.0388668
-0.0401194
-0.0413408
-0.0425301
-0.0436864
-0.0448087
-0.0458962
-0.0469482
-0.0345167
-0.0358335
-0.0371228
-0.0383836
-0.0396148
-0.0408154
-0.0419842
-0.0431205
-0.0442234
-0.045292
-0.0463255
-0.0473234
-0.0343169
-0.0356176
-0.0368909
-0.0381355
-0.0393507
-0.0405356
-0.0416893
-0.042811
-0.0438998
-0.044955
-0.0459758
-0.0469615
0.095521
0.0873367
0.0796084
0.0717715
0.0634498
0.0549793
0.0464956
0.037975
0.0294254
0.0208744
0.0123407
0.00383793
-0.00462182
-0.0130278
-0.0213706
-0.0296421
-0.0378348
-0.0459424
-0.0539596
-0.0618821
-0.0697075
-0.0774324
-0.0850579
-0.0926015
-0.100094
-0.107418
-0.114601
-0.121683
0.0924992
0.084035
0.0758725
0.0681707
0.0600655
0.0518095
0.0435927
0.0353681
0.0271247
0.0188893
0.0106783
0.00250111
-0.00563256
-0.0137134
-0.0217337
-0.0296866
-0.037566
-0.0453666
-0.0530844
-0.0607163
-0.0682616
-0.0757188
-0.0830865
-0.090325
-0.0975147
-0.104582
-0.111528
-0.118382
0.0887022
0.0803094
0.0718801
0.0643526
0.0565664
0.0485654
0.040618
0.0326933
0.0247553
0.0168285
0.00893178
0.0010718
-0.00674394
-0.0145072
-0.0222111
-0.02985
-0.0374186
-0.0449123
-0.0523276
-0.0596613
-0.0669116
-0.0740741
-0.0811436
-0.0881052
-0.0950431
-0.101854
-0.108549
-0.115158
0.0845507
0.0764777
0.067993
0.0606308
0.0531893
0.0454728
0.0377919
0.0301657
0.0225366
0.0149184
0.0073333
-0.000212577
-0.00771434
-0.0151651
-0.0225588
-0.0298905
-0.0371559
-0.044351
-0.0514725
-0.0585171
-0.0654816
-0.0723603
-0.0791497
-0.0858546
-0.0925564
-0.0991184
-0.105569
-0.111944
0.0803004
0.0726198
0.064211
0.0569987
0.049888
0.042477
0.0350636
0.0277283
0.0204061
0.0130934
0.00581371
-0.00142478
-0.00861943
-0.015765
-0.0228561
-0.0298885
-0.0368586
-0.0437629
-0.0505986
-0.0573628
-0.0640526
-0.0706617
-0.0771797
-0.0835996
-0.0900691
-0.0963949
-0.102615
-0.108763
0.0760611
0.0687675
0.0605291
0.0534733
0.0466721
0.039579
0.0324388
0.0253864
0.0183653
0.0113535
0.00437219
-0.00256729
-0.0094632
-0.0163122
-0.0231096
-0.0298517
-0.0365352
-0.0431574
-0.0497157
-0.0562079
-0.0626319
-0.0689865
-0.075274
-0.0814901
-0.0876072
-0.0936878
-0.0996953
-0.105625
0.0718762
0.0649452
0.0569458
0.0500663
0.0435537
0.0367803
0.0299201
0.0231441
0.0164162
0.00970031
0.0030109
-0.00363761
-0.010243
-0.0168037
-0.0233159
-0.0297761
-0.0361815
-0.0425298
-0.0488188
-0.0550468
-0.0612125
-0.0673156
-0.0733553
-0.0793244
-0.0851745
-0.0910253
-0.0968168
-0.102528
0.0677741
0.0611817
0.0534658
0.0467848
0.0405434
0.0340836
0.0275078
0.0210036
0.0145601
0.0081336
0.00172962
-0.00463589
-0.0109592
-0.0172399
-0.0234752
-0.0296619
-0.0357975
-0.04188
-0.0479075
-0.0538786
-0.0597918
-0.0656463
-0.0714391
-0.0771635
-0.082791
-0.088412
-0.0939797
-0.099473
0.0637773
0.0575024
0.0500957
0.0436321
0.037649
0.0314924
0.025202
0.0189661
0.0127982
0.00665327
0.000527959
-0.00556243
-0.0116122
-0.0176213
-0.0235881
-0.0295098
-0.0353839
-0.0412086
-0.0469823
-0.0527037
-0.058371
-0.0639834
-0.0695373
-0.0750287
-0.0804388
-0.0858341
-0.0911797
-0.0964582
0.059902
0.0539261
0.046842
0.0406101
0.0348757
0.0290102
0.0230028
0.017032
0.0111312
0.00525933
-0.00059464
-0.00641772
-0.0122025
-0.0179487
-0.0236554
-0.0293203
-0.0349411
-0.0405161
-0.0460438
-0.0515227
-0.0569514
-0.0623286
-0.0676511
-0.0729162
-0.0781118
-0.0832889
-0.088418
-0.0934855
0.0561595
0.0504666
0.0437103
0.0377198
0.0322268
0.02664
0.0209105
0.015201
0.00955954
0.00395169
-0.00163884
-0.00720248
-0.0127308
-0.0182226
-0.0236777
-0.0290942
-0.0344699
-0.0398031
-0.0450924
-0.0503365
-0.0555337
-0.0606828
-0.065781
-0.0708264
-0.0758117
-0.0807774
-0.0856957
-0.0905563
0.0525578
0.0471341
0.0407056
0.0349622
0.0297042
0.0243841
0.0189256
0.0134727
0.00808302
0.0027301
-0.00260539
-0.00791761
-0.0131978
-0.0184439
-0.0236558
-0.0288322
-0.0339709
-0.0390704
-0.0441291
-0.0491457
-0.0541187
-0.0590469
-0.0639278
-0.0687601
-0.0735394
-0.0782998
-0.083013
-0.0876712
0.0491028
0.0439359
0.0378317
0.0323379
0.027309
0.0222441
0.0170483
0.0118463
0.00670105
0.00159404
-0.00349517
-0.00856419
-0.0136047
-0.0186137
-0.0235909
-0.0285353
-0.0334452
-0.0383188
-0.0431547
-0.0479514
-0.0527075
-0.0574218
-0.0620921
-0.0667175
-0.0712956
-0.0758572
-0.0803709
-0.0848313
0.0457989
0.0408776
0.0350914
0.0298471
0.0250415
0.0202207
0.0152784
0.0103209
0.00541265
0.000542661
-0.00430922
-0.00914344
-0.0139526
-0.0187329
-0.0234839
-0.0282047
-0.0328939