/*--------------------------------*- C++ -*----------------------------------*\
  =========                 |
  \\      /  F ield         | OpenFOAM: The Open Source CFD Toolbox
   \\    /   O peration     | Website:  https://openfoam.org
    \\  /    A nd           | Version:  7
     \\/     M anipulation  |
\*---------------------------------------------------------------------------*/
FoamFile
{
    version     2.0;
    format      ascii;
    class       surfaceScalarField;
    location    "5";
    object      phi;
}
// * * * * * * * * * * * * * * * * * * * * * * * * * * * * * * * * * * * * * //

dimensions      [0 3 -1 0 0 0 0];

internalField   nonuniform List<scalar> 
16357
(
0.000208057
0.00019612
0.000186511
0.000179254
5.05461e-06
0.000174199
0.000364748
3.16742e-06
0.000171032
0.000336133
1.74082e-06
0.000169291
0.000307606
8.85103e-07
0.000168406
0.000277981
6.47166e-07
0.000167759
3.27352e-05
0.000245893
8.99795e-05
1.03088e-06
0.000166728
3.70518e-05
0.000209872
-6.03251e-06
2.05823e-06
0.000164669
4.34599e-05
0.00016847
0.000152387
-0.00011496
-0.000723474
3.71596e-06
0.000160953
5.1869e-05
0.000120317
0.000175689
-0.00023878
-0.000956464
5.95003e-06
0.000155003
6.21237e-05
6.41435e-05
0.000202549
-0.000379206
-0.00121429
8.69072e-06
0.000146313
7.40326e-05
-1.19837e-06
0.00023245
-0.000537623
0.000514532
-0.00149637
-0.00280247
1.18667e-05
0.000134446
8.73937e-05
-7.67254e-05
0.000264798
-0.000715028
0.000569514
-0.00180108
-0.00320936
1.5413e-05
0.000119033
0.000102011
-0.000163323
0.000298941
-0.000911958
0.00062365
-0.00212579
0.00103492
-0.00362063
-0.00511328
1.92759e-05
9.97572e-05
0.000117699
-0.000261747
0.00033417
-0.00112843
0.00067535
-0.00246697
0.0010847
-0.00402997
0.00148378
-0.00551236
-0.00674207
2.34148e-05
7.63424e-05
0.000134285
-0.000372616
0.000369731
-0.00136388
0.000723185
-0.00282043
0.00112489
-0.00443168
0.00149905
-0.00588652
-0.0070502
2.78019e-05
4.85405e-05
0.000151586
-0.000496401
0.000404839
-0.00161713
0.000765957
-0.00318154
0.00115512
-0.00482084
0.00150249
-0.0062339
0.00177991
-0.00732762
-0.00814736
3.24196e-05
1.61209e-05
0.000169405
-0.000633387
0.000438708
-0.00188643
0.000802745
-0.00354558
0.00117542
-0.00519352
0.00149514
-0.00655361
0.00174344
-0.00757591
0.00192923
-0.00833316
-0.00892742
3.72571e-05
-2.11362e-05
0.000187513
-0.000783642
0.000470577
-0.00216949
0.000832923
-0.00390793
0.00118615
-0.00554674
0.00147813
-0.0068456
0.0016992
-0.00779698
0.00186281
-0.00849676
0.00198863
-0.00905324
-0.00954732
4.23064e-05
-6.34426e-05
0.000205644
-0.000946979
0.000499743
-0.00246359
0.000856154
-0.00426434
0.00118783
-0.00587842
0.00145262
-0.00711039
0.0016485
-0.00799286
0.00179228
-0.00864054
0.00190364
-0.00916461
0.00199744
-0.00964112
-0.0101111
4.75568e-05
-0.000110999
0.000223505
-0.00112293
0.000525596
-0.00276568
0.000872351
-0.00461109
0.00118118
-0.00618724
0.00141972
-0.00734894
0.00159249
-0.00816563
0.00171856
-0.00876661
0.00181705
-0.00926309
0.0019012
-0.00972527
0.00197869
-0.0101886
-0.0106692
5.29898e-05
-0.000163989
0.000240786
-0.00131072
0.000547647
-0.00307255
0.000881637
-0.00494508
0.00116695
-0.00647256
0.00138051
-0.0075625
0.00153218
-0.0083173
0.00164241
-0.00887684
0.00172932
-0.00935
0.00180452
-0.00980047
0.00187431
-0.0102584
0.00194125
-0.0107361
-0.0112322
5.85742e-05
-0.000222563
0.000257173
-0.00150932
0.000565542
-0.00338091
0.000884294
-0.00526384
0.00114596
-0.00673422
0.00133595
-0.00775249
0.00146843
-0.00844978
0.00156444
-0.00897286
0.00164082
-0.00942638
0.00170759
-0.00986724
0.00176987
-0.0103207
0.00182964
-0.0107959
0.00188906
-0.0112916
-0.0118211
0.00194632
6.42628e-05
-0.000286826
0.000272359
-0.00171742
0.000579072
-0.00368763
0.000880716
-0.00556548
0.00111899
-0.0069725
0.00128693
-0.00792042
0.00140198
-0.00856483
0.00148517
-0.00905605
0.00155185
-0.00949307
0.00161057
-0.00992595
0.00166544
-0.0103756
0.00171802
-0.0108484
0.00177008
-0.0113436
-0.0118711
0.00182008
6.99912e-05
-0.000356817
0.000286063
-0.00193349
0.00058816
-0.00398972
0.000871372
-0.00584869
0.00108683
-0.00718795
0.00123424
-0.00806784
0.00133346
-0.00866404
0.00140499
-0.00912758
0.00146262
-0.0095507
0.00151356
-0.00997689
0.00156109
-0.0104231
0.00160642
-0.0108938
0.00165105
-0.0113883
-0.0119137
0.00169365
7.56801e-05
-0.000432498
0.000298034
-0.00215584
0.000592848
-0.00428454
0.000856772
-0.00611262
0.00105019
-0.00738137
0.00117858
-0.00819622
0.00126338
-0.00874884
0.00132421
-0.00918841
0.00137331
-0.0095998
0.00141666
-0.0100202
0.00145687
-0.0104633
0.00149492
-0.0109318
0.00153204
-0.0114254
-0.0119488
0.0015671
8.12396e-05
-0.000513737
0.000308061
-0.00238267
0.000593274
-0.00456975
0.000837442
-0.00635678
0.00100976
-0.00755369
0.00112055
-0.00830701
0.00119218
-0.00882046
0.00124311
-0.00923934
0.00128405
-0.00964075
0.00131995
-0.0100561
0.00135284
-0.0104962
0.00138355
-0.0109625
0.0014131
-0.0114549
-0.0119762
0.00144052
8.65747e-05
-0.000600312
0.000315984
-0.00261208
0.000589647
-0.00484341
0.000813908
-0.00658105
0.000966147
-0.00770593
0.00106067
-0.00840153
0.0011202
-0.00888
0.00116187
-0.00928101
0.00119495
-0.00967383
0.00122348
-0.0100847
0.00124906
-0.0105218
0.00127238
-0.0109859
0.00129429
-0.0114768
-0.0119959
0.00131398
9.15903e-05
-0.000691902
0.000321693
-0.00284218
0.000582226
-0.00510395
0.00078668
-0.0067855
0.000919898
-0.00783915
0.000999385
-0.00848102
0.00104775
-0.00892837
0.00108068
-0.00931394
0.00110611
-0.00969926
0.00112732
-0.0101059
0.00114557
-0.01054
0.00116145
-0.0110017
0.00117568
-0.0114911
-0.0120077
0.00118755
9.61956e-05
-0.000788098
0.000325131
-0.00307111
0.000571303
-0.00535012
0.000756244
-0.00697044
0.00087151
-0.00795442
0.000937078
-0.00854659
0.000975061
-0.00896635
0.00099965
-0.00933853
0.00101759
-0.0097172
0.00103151
-0.0101198
0.00104243
-0.010551
0.00105083
-0.0110101
0.00105734
-0.0114976
-0.0120117
0.00106132
0.000100307
-0.000888405
0.00032629
-0.0032971
0.000557189
-0.00558102
0.000723055
-0.00713631
0.000821417
-0.00805278
0.000874069
-0.00859924
0.000902327
-0.00899461
0.0009189
-0.0093551
0.000929462
-0.00972776
0.000936123
-0.0101265
0.000939679
-0.0105545
0.000940572
-0.011011
0.000939307
-0.0114963
-0.0120078
0.000935366
0.00010385
-0.000992255
0.000325208
-0.00351845
0.000540197
-0.00579601
0.000687535
-0.00728364
0.000770001
-0.00813524
0.000810628
-0.00863986
0.00082971
-0.00901369
0.000838518
-0.00936391
0.000841785
-0.00973103
0.00084119
-0.0101259
0.000837373
-0.0105507
0.000830726
-0.0110044
0.000821662
-0.0114872
-0.0119959
0.000809757
0.000106761
-0.00109902
0.000321959
-0.00373365
0.000520641
-0.00599469
0.00065007
-0.00741307
0.000717594
-0.00820277
0.000746981
-0.00866925
0.000757341
-0.00902405
0.000758578
-0.00936515
0.000754609
-0.00972706
0.000746764
-0.010118
0.00073556
-0.0105395
0.00072135
-0.0109902
0.000704467
-0.0114704
-0.011976
0.000684576
0.000108986
-0.001208
0.000316648
-0.00394131
0.000498823
-0.00617687
0.000611009
-0.00752526
0.000664484
-0.00825624
0.000683318
-0.00868809
0.000685328
-0.00902606
0.000679143
-0.00935896
0.00066798
-0.0097159
0.000652887
-0.0101029
0.000634284
-0.0105209
0.00061249
-0.0109684
0.000587781
-0.0114457
-0.0119481
0.000559896
0.000110485
-0.00131849
0.000309401
-0.00414023
0.000475032
-0.0063425
0.00057067
-0.0076209
0.000610923
-0.0082965
0.000619801
-0.00869696
0.000613767
-0.00902003
0.000600276
-0.00934547
0.000581952
-0.00969757
0.000559614
-0.0100806
0.000533605
-0.0104949
0.000504209
-0.010939
0.000471685
-0.0114131
-0.0119122
0.00043579
0.00011123
-0.00142972
0.000300362
-0.00432936
0.000449543
-0.00649168
0.000529333
-0.00770069
0.000557124
-0.00832429
0.00055656
-0.0086964
0.000542732
-0.0090062
0.000522026
-0.00932477
0.000496566
-0.00967211
0.000466987
-0.010051
0.000433569
-0.0104615
0.000396556
-0.010902
0.000356213
-0.0113728
-0.0118683
0.00031229
0.000111205
-0.00154092
0.000289681
-0.00450784
0.000422611
-0.00662461
0.000487251
-0.00776533
0.00050327
-0.00834031
0.000493708
-0.00868684
0.000472288
-0.00898478
0.000444438
-0.00929692
0.000411863
-0.00963954
0.000375049
-0.0100142
0.000334228
-0.0104206
0.000289607
-0.0108573
0.000241399
-0.0113246
-0.0118163
0.000189402
0.000110411
-0.00165133
0.00027753
-0.00467496
0.000394473
-0.00674155
0.000444646
-0.0078155
0.000449519
-0.00834518
0.000431338
-0.00866866
0.000402492
-0.00895593
0.000367555
-0.00926198
0.000327884
-0.00959987
0.000283845
-0.00997015
0.000235622
-0.0103724
0.000183444
-0.0108052
0.000127357
-0.0112685
-0.0117558
6.69166e-05
0.00010886
-0.00176019
0.000264075
-0.00483017
0.000365351
-0.00684283
0.000401713
-0.00785186
0.000396006
-0.00833947
0.00036953
-0.00864218
0.000333395
-0.00891979
0.000291419
-0.00922
0.000244671
-0.00955312
0.000193422
-0.0099189
0.000137783
-0.0103168
7.80097e-05
-0.0107454
1.48227e-05
-0.0112053
-0.0116865
-5.45617e-05
0.000106574
-0.00186677
0.00024947
-0.00497307
0.000335445
-0.0069288
0.000358625
-0.00787504
0.000342844
-0.00832369
0.000308352
-0.00860769
0.000265036
-0.00887648
0.000216065
-0.00917103
0.000162269
-0.00949932
0.000103823
-0.00986046
4.07593e-05
-0.0102537
-2.67677e-05
-0.0106779
-9.81081e-05
-0.011134
-0.0116101
-0.000174514
0.000103589
-0.00197036
0.000233866
-0.00510334
0.000304937
-0.00699987
0.000315531
-0.00788564
0.000290131
-0.00829829
0.000247861
-0.00856542
0.000197458
-0.00882608
0.000141524
-0.0091151
8.07161e-05
-0.00943851
1.49606e-05
-0.0097947
-5.52866e-05
-0.0101835
-0.000130014
-0.0106031
-0.000209631
-0.0110543
-0.0115259
-0.000293764
9.99452e-05
-0.0020703
0.000217407
-0.00522081
0.000273993
-0.00705646
0.000272564
-0.00788421
0.00023795
-0.00826368
0.000188104
-0.00851557
0.000130701
-0.00876867
6.78172e-05
-0.00905221
-4.35199e-07
-0.00937026
-7.27536e-05
-0.00972238
-0.000150341
-0.0101059
-0.000232615
-0.0105209
-0.000320011
-0.010967
-0.0114339
-0.000412078
9.56918e-05
-0.00216599
0.000200229
-0.00532534
0.000242762
-0.00709899
0.00022984
-0.00787129
0.000186371
-0.00822021
0.000129116
-0.00845832
6.47933e-05
-0.00870435
-5.1908e-06
-0.00898223
-7.96746e-05
-0.00929578
-0.000159546
-0.00964251
-0.000244424
-0.010021
-0.000334235
-0.0104311
-0.000429308
-0.0108719
-0.0113339
-0.000529313
9.08814e-05
-0.00225687
0.000182459
-0.00541692
0.000211378
-0.00712791
0.000187458
-0.00784737
0.000135455
-0.00816821
7.09273e-05
-0.00839379
-7.51094e-07
-0.00863267
-7.67936e-05
-0.00890619
-0.000158413
-0.00921416
-0.000245346
-0.00955558
-0.000337475
-0.00992887
-0.000434774
-0.0103338
-0.000537496
-0.0107692
-0.0112259
-0.0006454
8.55698e-05
-0.00234244
0.000164218
-0.00549557
0.00017996
-0.00714365
0.000145503
-0.00781291
8.52461e-05
-0.00810795
1.35002e-05
-0.00832204
-6.42644e-05
-0.00855491
-0.000147621
-0.00882283
-0.000236159
-0.00912562
-0.000330101
-0.00946164
-0.000429434
-0.00982954
-0.000534169
-0.010229
-0.000644518
-0.0106588
-0.0111102
-0.000760264
7.98144e-05
-0.00242226
0.000145618
-0.00556137
0.000148617
-0.00714665
0.000104042
-0.00776834
3.57543e-05
-0.00803966
-4.2764e-05
-0.00824352
-0.000127369
-0.0084703
-0.000217465
-0.00873273
-0.00031286
-0.00903023
-0.000413764
-0.00936073
-0.000520248
-0.00972305
-0.000632365
-0.0101169
-0.00075031
-0.0105409
-0.0109867
-0.000873841
7.36727e-05
-0.00249593
0.000126765
-0.00561447
0.000117444
-0.00713733
6.31488e-05
-0.00771404
-1.30269e-05
-0.00796349
-9.82065e-05
-0.00815834
-0.000189511
-0.008379
-0.000286284
-0.00863596
-0.000388472
-0.00892804
-0.000496288
-0.00925292
-0.000609865
-0.00960948
-0.000729305
-0.00999746
-0.000854808
-0.0104154
-0.0108554
-0.000986061
6.72013e-05
-0.00256313
0.000107755
-0.00565502
8.65238e-05
-0.0071161
2.29025e-05
-0.00765042
-6.05499e-05
-0.00788003
-0.000152722
-0.00806617
-0.000250647
-0.00828107
-0.000354042
-0.00853257
-0.000462957
-0.00881912
-0.000577627
-0.00913825
-0.000698233
-0.00948887
-0.000824934
-0.00987076
-0.000957946
-0.0102823
-0.0107165
-0.00109686
6.04547e-05
-0.00262359
8.86864e-05
-0.00568325
5.59289e-05
-0.00708334
-1.66692e-05
-0.00757782
-0.000107409
-0.0077893
-0.000206275
-0.00796731
-0.000310747
-0.0081766
-0.000420703
-0.00842261
-0.000536279
-0.00870355
-0.000657736
-0.00901679
-0.0007853
-0.00936131
-0.000919194
-0.00973687
-0.00105966
-0.0101419
-0.01057
-0.00120616
5.3485e-05
-0.00267707
6.96516e-05
-0.00569942
2.57261e-05
-0.00703942
-5.55193e-05
-0.00749657
-0.000153401
-0.00769141
-0.000258839
-0.00786187
-0.000369783
-0.00806566
-0.000486235
-0.00830616
-0.000608401
-0.00858138
-0.000736572
-0.00888862
-0.000871018
-0.00922686
-0.00101203
-0.00959586
-0.00115988
-0.00999403
-0.010416
-0.00131389
4.63471e-05
-0.00272342
5.07476e-05
-0.00570382
-4.02542e-06
-0.00698464
-9.36253e-05
-0.00740698
-0.00019848
-0.00758656
-0.00031039
-0.00774996
-0.000427728
-0.00794832
-0.000550604
-0.00818328
-0.000679284
-0.0084527
-0.000814092
-0.00875381
-0.000955334
-0.00908562
-0.00110337
-0.00944782
-0.00125855
-0.00983885
-0.0102545
-0.00142
3.9103e-05
-0.00276252
3.21027e-05
-0.00569682
-3.32366e-05
-0.0069193
-0.000130958
-0.00730925
-0.000242622
-0.00747489
-0.000360908
-0.00763167
-0.000484556
-0.00782467
-0.00061378
-0.00805406
-0.000748893
-0.00831759
-0.000890254
-0.00861245
-0.0010382
-0.00893767
-0.00119318
-0.00929284
-0.0013556
-0.00967644
-0.0100857
-0.0015244
3.18075e-05
-0.00279433
1.40292e-05
-0.00567904
-6.18377e-05
-0.00684344
-0.000167508
-0.00720358
-0.00028581
-0.00735659
-0.00041037
-0.00750711
-0.000540244
-0.0076948
-0.00067573
-0.00791857
-0.000817191
-0.00817613
-0.000965015
-0.00846463
-0.00111957
-0.00878311
-0.00128138
-0.00913103
-0.00145096
-0.00950686
-0.00990968
-0.00162702
2.44524e-05
-0.00281878
-3.32905e-06
-0.00565126
-8.98531e-05
-0.00675691
-0.000203261
-0.00709017
-0.000328033
-0.00723182
-0.000458757
-0.00737639
-0.000594765
-0.00755879
-0.000736425
-0.00777691
-0.000884143
-0.00802841
-0.00103834
-0.00831043
-0.0011994
-0.00862205
-0.00136793
-0.0089625
-0.00154456
-0.00933023
-0.00972645
-0.0017278
1.6974e-05
-0.00283576
-2.33915e-05
-0.00561089
-0.000117441
-0.00666286
-0.000238162
-0.00696945
-0.000369267
-0.00710072
-0.000506048
-0.00723961
-0.000648094
-0.00741674
-0.000795834
-0.00762917
-0.000949714
-0.00787453
-0.00111018
-0.00814997
-0.00127764
-0.00845458
-0.00145278
-0.00878736
-0.00163637
-0.00914665
-0.00953617
-0.00182665
9.52434e-06
-0.00284528
-4.18971e-05
-0.00555947
-0.000144437
-0.00656032
-0.000272192
-0.0068417
-0.000409491
-0.00696342
-0.000552224
-0.00709687
-0.000700207
-0.00726876
-0.000853926
-0.00747545
-0.00101387
-0.00771459
-0.0011805
-0.00798334
-0.00135426
-0.00828083
-0.0015359
-0.00860571
-0.00172633
-0.00895622
-0.00933908
-0.00192341
2.32733e-06
-0.00284761
-5.9766e-05
-0.00549738
-0.000170784
-0.00644931
-0.00030534
-0.00670714
-0.00044869
-0.00682007
-0.000597264
-0.0069483
-0.000751079
-0.00711495
-0.000910673
-0.00731586
-0.00107657
-0.00754869
-0.00124926
-0.00781065
-0.0014292
-0.00810089
-0.00161723
-0.00841768
-0.00181436
-0.0087591
-0.00913548
-0.00201795
-5.30037e-06
-0.00284231
-7.71572e-05
-0.00542552
-0.000196442
-0.00633002
-0.000337591
-0.00656599
-0.000486848
-0.00667081
-0.000641151
-0.006794
-0.000800686
-0.00695541
-0.000966046
-0.0071505
-0.00113779
-0.00737695
-0.00131642
-0.00763202
-0.00150243
-0.00791488
-0.00169675
-0.00822336
-0.00190038
-0.00855546
-0.00892532
-0.00211054
-1.28306e-05
-0.00282948
-9.41069e-05
-0.00534425
-0.000221385
-0.00620274
-0.000368929
-0.00641845
-0.000523951
-0.00651579
-0.000683864
-0.00663408
-0.000849005
-0.00679027
-0.00102001
-0.00697949
-0.00119748
-0.00719948
-0.00138194
-0.00744757
-0.00157394
-0.00772288
-0.00177447
-0.00802282
-0.0019844
-0.00834553
-0.00870871
-0.00220101
-2.01236e-05
-0.00280935
-0.000110611
-0.00525376
-0.000245599
-0.00606776
-0.000399341
-0.00626471
-0.000559985
-0.00635514
-0.000725386
-0.00646868
-0.000896012
-0.00661964
-0.00107255
-0.00680295
-0.00125562
-0.0070164
-0.00144579
-0.0072574
-0.00164372
-0.00752495
-0.00185048
-0.00781606
-0.00206616
-0.00812986
-0.00848751
-0.00228736
-2.7243e-05
-0.00278211
-0.000126659
-0.00515434
-0.000269069
-0.00592535
-0.000428816
-0.00610496
-0.000594939
-0.00618902
-0.0007657
-0.00629792
-0.000941684
-0.00644366
-0.00112362
-0.00662102
-0.00131216
-0.00682786
-0.00150792
-0.00706165
-0.00171171
-0.00732116
-0.00192458
-0.00760319
-0.00214663
-0.00790781
-0.00826586
-0.00236827
-3.41946e-05
-0.00274792
-0.000142239
-0.0050463
-0.000291787
-0.0057758
-0.000457345
-0.0059394
-0.0006288
-0.00601757
-0.000804789
-0.00612193
-0.000986
-0.00626245
-0.0011732
-0.00643381
-0.00136708
-0.00663398
-0.0015683
-0.00686042
-0.00177778
-0.00711169
-0.00199594
-0.00738503
-0.00221957
-0.00768418
-0.00802116
-0.00246427
-4.09729e-05
-0.00270694
-0.000157339
-0.00492993
-0.000313743
-0.00561939
-0.000484918
-0.00576823
-0.000661556
-0.00584093
-0.000842635
-0.00594086
-0.00102894
-0.00607615
-0.00122126
-0.00624149
-0.00142034
-0.00643491
-0.00162689
-0.00665387
-0.00184176
-0.00689682
-0.00206489
-0.0071619
-0.00229575
-0.00745332
-0.00777146
-0.00254544
-4.75686e-05
-0.00265937
-0.000171946
-0.00480555
-0.000334929
-0.00545641
-0.000511528
-0.00559163
-0.000693196
-0.00565926
-0.000879222
-0.00575483
-0.00107047
-0.0058849
-0.00126778
-0.00604418
-0.00147191
-0.00623077
-0.00168365
-0.00644213
-0.00190375
-0.00667672
-0.00213229
-0.00693336
-0.00237024
-0.00721536
-0.00751793
-0.00262377
-5.39717e-05
-0.0026054
-0.00018605
-0.00467347
-0.000355339
-0.00528712
-0.000537167
-0.0054098
-0.000723709
-0.00547272
-0.000914535
-0.005564
-0.00111058
-0.00568885
-0.00131273
-0.00584204
-0.00152177
-0.00602173
-0.00173851
-0.00622539
-0.00196367
-0.00645156
-0.00219753
-0.0066995
-0.00244157
-0.00697132
-0.00726019
-0.00269931
-6.01722e-05
-0.00254523
-0.000199641
-0.00453401
-0.000374967
-0.0051118
-0.00056183
-0.00522294
-0.000753086
-0.00528146
-0.000948559
-0.00536853
-0.00114925
-0.00548816
-0.00135608
-0.00563521
-0.00156987
-0.00580793
-0.00179146
-0.0060038
-0.00202155
-0.00622148
-0.00226062
-0.00646043
-0.00251021
-0.00672173
-0.00699812
-0.00277228
-6.61608e-05
-0.00247907
-0.000212709
-0.00438746
-0.000393807
-0.0049307
-0.00058551
-0.00503123
-0.000781316
-0.00508566
-0.000981279
-0.00516857
-0.00118646
-0.00528297
-0.00139781
-0.00542386
-0.0016162
-0.00558954
-0.00184246
-0.00577754
-0.00207731
-0.00598662
-0.00232141
-0.00621634
-0.00257615
-0.00646699
-0.00673156
-0.0028427
-7.19282e-05
-0.00240714
-0.000225246
-0.00423414
-0.000411854
-0.00474409
-0.000608201
-0.00483489
-0.00080839
-0.00488547
-0.00101268
-0.00496428
-0.00122219
-0.00507346
-0.0014379
-0.00520816
-0.00166071
-0.00536674
-0.00189147
-0.00554677
-0.00213094
-0.00574716
-0.00237984
-0.00596743
-0.00263946
-0.00620737
-0.00646048
-0.00291054
-7.74712e-05
-0.00232967
-0.000237247
-0.00407436
-0.000429105
-0.00455223
-0.000629899
-0.00463409
-0.000834298
-0.00468107
-0.00104275
-0.00475582
-0.00125642
-0.00485979
-0.00147632
-0.00498826
-0.00170338
-0.00513967
-0.00193848
-0.00531168
-0.00218238
-0.00550325
-0.00243589
-0.00571392
-0.00270015
-0.00594311
-0.00618489
-0.00297574
-8.27882e-05
-0.00224688
-0.000248704
-0.00390845
-0.000445556
-0.00435538
-0.000650598
-0.00442905
-0.000859033
-0.00447263
-0.00107147
-0.00454338
-0.00128914
-0.00464213
-0.00151305
-0.00476434
-0.00174419
-0.00490854
-0.00198344
-0.00507243
-0.0022316
-0.0052551
-0.0024895
-0.00545602
-0.0027582
-0.00567441
-0.00590488
-0.00303821
-8.78716e-05
-0.00215901
-0.000259614
-0.0037367
-0.000461204
-0.00415379
-0.000670293
-0.00421996
-0.000882585
-0.00426034
-0.00109884
-0.00432713
-0.00132032
-0.00442065
-0.00154808
-0.00453658
-0.00178312
-0.0046735
-0.00202633
-0.00482922
-0.00227856
-0.00500287
-0.00254065
-0.00519393
-0.00281361
-0.00540145
-0.00562058
-0.00309791
-9.2715e-05
-0.0020663
-0.000269971
-0.00355945
-0.000476045
-0.00394772
-0.00068898
-0.00400703
-0.000904946
-0.00404438
-0.00112484
-0.00410723
-0.00134995
-0.00419554
-0.00158138
-0.00430516
-0.00182013
-0.00443475
-0.00206713
-0.00458222
-0.00232323
-0.00474676
-0.00258932
-0.00492784
-0.00286633
-0.00512444
-0.00533214
-0.00315477
-9.73127e-05
-0.00196898
-0.000279772
-0.00337699
-0.000490076
-0.00373741
-0.000706655
-0.00379045
-0.00092611
-0.00382492
-0.00114946
-0.00388389
-0.00137802
-0.00396697
-0.00161293
-0.00407026
-0.0018552
-0.00419247
-0.0021058
-0.00433163
-0.00236559
-0.00448697
-0.00263546
-0.00465797
-0.00291634
-0.00484356
-0.00503973
-0.00320875
-0.00010166
-0.00186732
-0.000289013
-0.00318964
-0.000503296
-0.00352313
-0.000723313
-0.00357043
-0.000946069
-0.00360216
-0.00117268
-0.00365727
-0.00140451
-0.00373514
-0.00164271
-0.00383206
-0.00188832
-0.00394686
-0.00214232
-0.00407763
-0.0024056
-0.00422369
-0.00267905
-0.00438452
-0.0029636
-0.00455901
-0.00474355
-0.00325978
-0.000105753
-0.00176157
-0.00029769
-0.0029977
-0.000515702
-0.00330512
-0.000738952
-0.00334718
-0.000964816
-0.0033763
-0.00119451
-0.00342758
-0.00142942
-0.00350023
-0.00167071
-0.00359077
-0.00191947
-0.0036981
-0.00217667
-0.00382042
-0.00244324
-0.00395712
-0.00272007
-0.00410769
-0.00300808
-0.004271
-0.0044438
-0.00330783
-0.000109587
-0.00165198
-0.000305801
-0.00280148
-0.000527291
-0.00308363
-0.000753567
-0.00312091
-0.000982345
-0.00314752
-0.00121492
-0.00319501
-0.00145271
-0.00326243
-0.00169691
-0.00334657
-0.00194862
-0.00344639
-0.00220883
-0.00356021
-0.00247848
-0.00368747
-0.00275848
-0.00382769
-0.00304974
-0.00397974
-0.00414069
-0.00335286
-0.00011316
-0.00153882
-0.000313344
-0.0026013
-0.000538063
-0.00285891
-0.000767156
-0.00289181
-0.000998651
-0.00291603
-0.00123392
-0.00295974
-0.0014744
-0.00302195
-0.0017213
-0.00309967
-0.00197575
-0.00319193
-0.00223877
-0.0032972
-0.00251129
-0.00341495
-0.00279425
-0.00354473
-0.00308856
-0.00368543
-0.00383443
-0.00339482
-0.000116469
-0.00142235
-0.000320315
-0.00239745
-0.000548015
-0.00263121
-0.000779715
-0.00266011
-0.00101373
-0.00268202
-0.00125148
-0.00272199
-0.00149445
-0.00277899
-0.00174386
-0.00285026
-0.00200086
-0.00293494
-0.00226647
-0.00303159
-0.00254166
-0.00313976
-0.00282736
-0.00325902
-0.0031245
-0.00338829
-0.00352525
-0.00343368
-0.000119511
-0.00130284
-0.000326713
-0.00219025
-0.000557146
-0.00240078
-0.000791242
-0.00242602
-0.00102757
-0.00244569
-0.00126762
-0.00248194
-0.00151288
-0.00253373
-0.00176459
-0.00259855
-0.00202392
-0.0026756
-0.00229192
-0.0027636
-0.00256955
-0.00286213
-0.00285779
-0.00297079
-0.00315753
-0.00308856
-0.00321337
-0.0034694
-0.000122283
-0.00118056
-0.000332537
-0.00198
-0.000565454
-0.00216786
-0.000801734
-0.00218974
-0.00104018
-0.00220724
-0.00128232
-0.0022398
-0.00152966
-0.00228638
-0.00178347
-0.00234474
-0.00204493
-0.00241414
-0.00231509
-0.00249344
-0.00259496
-0.00258226
-0.0028855
-0.00268025
-0.00318762
-0.00278644
-0.00289904
-0.00350196
-0.000124785
-0.00105577
-0.000337784
-0.001767
-0.000572939
-0.00193271
-0.000811188
-0.00195149
-0.00105154
-0.00196689
-0.00129557
-0.00199577
-0.00154479
-0.00203716
-0.0018005
-0.00208903
-0.00206387
-0.00215077
-0.00233599
-0.00222132
-0.00261787
-0.00230038
-0.00291049
-0.00238763
-0.00321475
-0.00248218
-0.00258247
-0.00353132
-0.000127013
-0.000928761
-0.000342454
-0.00155156
-0.000579598
-0.00169556
-0.000819603
-0.00171148
-0.00106166
-0.00172484
-0.00130737
-0.00175006
-0.00155827
-0.00178625
-0.00181566
-0.00183165
-0.00208074
-0.00188569
-0.00235459
-0.00194747
-0.00263825
-0.00201672
-0.00293271
-0.00209316
-0.00323889
-0.002176
-0.00226391
-0.00355745
-0.000128968
-0.000799793
-0.000346545
-0.00133398
-0.000585431
-0.00145668
-0.000826977
-0.00146994
-0.00107053
-0.00148129
-0.00131772
-0.00150287
-0.0015701
-0.00153387
-0.00182896
-0.00157278
-0.00209553
-0.00161912
-0.00237089
-0.0016721
-0.00265611
-0.00173151
-0.00295218
-0.00179709
-0.00326002
-0.00186816
-0.00194361
-0.00358032
-0.000130646
-0.000669148
-0.000350055
-0.00111457
-0.000590437
-0.00121629
-0.000833307
-0.00122707
-0.00107814
-0.00123646
-0.00132661
-0.0012544
-0.00158025
-0.00128022
-0.00184039
-0.00131265
-0.00210824
-0.00135128
-0.0023849
-0.00139544
-0.00267143
-0.00144497
-0.00296887
-0.00149965
-0.00327812
-0.00155891
-0.00162183
-0.0035999
-0.000132047
-0.0005371
-0.000352985
-0.000893634
-0.000594614
-0.000974666
-0.000838591
-0.00098309
-0.0010845
-0.000990543
-0.00133404
-0.00100487
-0.00158875
-0.00102551
-0.00184995
-0.00105145
-0.00211887
-0.00108236
-0.00239661
-0.0011177
-0.00268424
-0.00115734
-0.00298279
-0.0012011
-0.00329319
-0.0012485
-0.00129884
-0.00361619
-0.000133171
-0.000403929
-0.000355332
-0.000671473
-0.000597961
-0.000732036
-0.000842828
-0.000738224
-0.00108961
-0.000743764
-0.00134
-0.000754479
-0.00159557
-0.000769942
-0.00185763
-0.000789386
-0.00212742
-0.000812569
-0.00240603
-0.00083909
-0.00269454
-0.000868835
-0.00299397
-0.000901668
-0.00330526
-0.000937214
-0.000974933
-0.00362917
-0.000134015
-0.000269914
-0.000357097
-0.000448392
-0.000600478
-0.000488655
-0.000846015
-0.000492687
-0.00109345
-0.000496329
-0.00134449
-0.000503436
-0.00160072
-0.000513719
-0.00186343
-0.000526667
-0.00213389
-0.000542118
-0.00241317
-0.000559806
-0.00270235
-0.000579654
-0.00300245
-0.00060157
-0.00331437
-0.000625289
-0.000650418
-0.00363889
-0.000134581
-0.000135333
-0.000358278
-0.000224695
-0.000602164
-0.000244768
-0.000848151
-0.0002467
-0.00109603
-0.000248453
-0.00134751
-0.000251952
-0.00160418
-0.000257052
-0.00186735
-0.000263496
-0.00213826
-0.000271205
-0.00241802
-0.000280046
-0.00270769
-0.000289985
-0.00300828
-0.000300979
-0.00332067
-0.000312904
-0.000325558
-0.00364553
-0.000134866
-4.67028e-07
-0.000358874
-6.86614e-07
-0.000603017
-6.2587e-07
-0.000849235
-4.8225e-07
-0.00109734
-3.48846e-07
-0.00134905
-2.38294e-07
-0.00160595
-1.5e-07
-0.00186937
-8.27056e-08
-0.00214053
-3.6711e-08
-0.00242057
-1.26381e-08
-0.00271054
-1.35236e-08
-0.00301148
-4.31064e-08
-0.00332428
-1.04362e-07
-2.33589e-07
-0.0036496
-0.000134871
0.000134404
-0.000358886
0.000223328
-0.000603037
0.000243524
-0.000849264
0.000245745
-0.00109738
0.000247767
-0.00134911
0.000251491
-0.00160603
0.000256771
-0.00186947
0.000263356
-0.00214067
0.000271167
-0.00242076
0.000280071
-0.00271081
0.000290036
-0.00301187
0.000301024
-0.0033249
0.000312919
0.000325577
-0.00365071
-0.000134596
0.000269001
-0.000358314
0.000447046
-0.000602223
0.000487433
-0.000848238
0.00049176
-0.00109615
0.000495679
-0.00134768
0.00050302
-0.0016044
0.000513496
-0.00186765
0.000526601
-0.00213866
0.000542176
-0.00241855
0.000559961
-0.0027084
0.000579887
-0.00300925
0.000601875
-0.00332202
0.000625689
0.000650957
-0.0036474
-0.000134041
0.000403042
-0.000357155
0.00067016
-0.000600574
0.000730852
-0.000846156
0.000737342
-0.00109365
0.00074317
-0.00134476
0.000754133
-0.00160107
0.000769805
-0.0018639
0.000789427
-0.00213448
0.00081276
-0.00241393
0.00083941
-0.00270331
0.000869271
-0.00300366
0.00090222
-0.00331586
0.000937888
0.000975718
-0.00364062
-0.000133205
0.000536247
-0.000355412
0.000892367
-0.000598092
0.000973532
-0.000843018
0.000982268
-0.00108987
0.000990023
-0.00134035
0.00100461
-0.00159603
0.00102548
-0.00185821
0.00105161
-0.00212814
0.00108269
-0.00240691
0.00111818
-0.00269559
0.00115795
-0.00299518
0.00120181
-0.00330659
0.0012493
0.00129966
-0.00363054
-0.000132091
0.000668338
-0.000353085
0.00111336
-0.000594776
0.00121522
-0.000838825
0.00122632
-0.00108482
0.00123602
-0.00133446
0.00125425
-0.00158928
0.00128031
-0.00185061
0.00131294
-0.00211965
0.00135174
-0.00239752
0.00139605
-0.00268525
0.00144568
-0.00298387
0.00150043
-0.00329428
0.00155971
0.00162258
-0.00361719
-0.000130697
0.000799034
-0.000350172
0.00133284
-0.000590625
0.00145568
-0.000833577
0.00146927
-0.00107851
0.00148095
-0.00132708
0.00150282
-0.00158084
0.00153407
-0.00184108
0.00157318
-0.00210903
0.00161968
-0.00238577
0.00167278
-0.00267234
0.00173225
-0.00296976
0.00179785
-0.00327895
0.00186889
0.00194424
-0.00360062
-0.000129025
0.000928059
-0.000346676
0.00155049
-0.000585642
0.00169464
-0.000827276
0.0017109
-0.00107092
0.0017246
-0.00131822
0.00175011
-0.0015707
0.00178655
-0.00182965
0.00183213
-0.00209629
0.00188632
-0.00237168
0.00194818
-0.00265688
0.00201745
-0.00295289
0.00209386
-0.00326063
0.00217663
0.00226443
-0.00358081
-0.000127076
0.00105513
-0.000342598
0.00176601
-0.000579827
0.00193187
-0.000819923
0.001951
-0.00106207
0.00196675
-0.00130788
0.00199592
-0.00155888
0.00203754
-0.00181633
0.00208958
-0.00208143
0.00215143
-0.00235528
0.00222202
-0.00263889
0.00230106
-0.00293326
0.00238824
-0.00323934
0.0024827
0.00258288
-0.00355779
-0.000124851
0.00117999
-0.000337937
0.0019791
-0.00057318
0.00216711
-0.000811522
0.00218934
-0.00105197
0.0022072
-0.00129608
0.00224003
-0.00154538
0.00228683
-0.00180112
0.00234532
-0.00206449
0.0024148
-0.00233657
0.0024941
-0.00261837
0.00258287
-0.0029109
0.00268077
-0.00321507
0.00278688
0.00289938
-0.00353156
-0.000122352
0.00130234
-0.000332696
0.00218944
-0.000565704
0.00240012
-0.000802074
0.00242571
-0.0010406
0.00244573
-0.00128282
0.00248225
-0.00153021
0.00253423
-0.00178404
0.00259915
-0.00204547
0.00267624
-0.00231558
0.0027642
-0.00259536
0.00286266
-0.00288582
0.00297122
-0.00318786
0.00308891
0.00321366
-0.00350214
-0.000119582
0.00142192
-0.000326877
0.00239674
-0.0005574
0.00263064
-0.000791583
0.0026599
-0.00102799
0.00268213
-0.0012681
0.00272236
-0.00151339
0.00277951
-0.00176509
0.00285086
-0.00202438
0.00293553
-0.00229231
0.00303213
-0.00256986
0.00314021
-0.00285802
0.00325938
-0.0031577
0.00338859
0.0035255
-0.00346954
-0.00011654
0.00153846
-0.00032048
0.00260067
-0.000548269
0.00285843
-0.000780052
0.00289168
-0.00101413
0.00291622
-0.00125194
0.00296016
-0.00149492
0.0030225
-0.00174431
0.00310024
-0.00200125
0.00319247
-0.00226678
0.00329766
-0.00254189
0.00341532
-0.00282754
0.00354502
-0.00312463
0.00368568
0.00383466
-0.00343379
-0.000113231
0.00165169
-0.000313507
0.00280095
-0.000538314
0.00308324
-0.000767484
0.00312085
-0.000999039
0.00314777
-0.00123434
0.00319546
-0.00147482
0.00326297
-0.00172168
0.00334711
-0.00197608
0.00344686
-0.00223902
0.0035606
-0.00251147
0.00368778
-0.00279438
0.00382793