/*--------------------------------*- C++ -*----------------------------------*\
  =========                 |
  \\      /  F ield         | OpenFOAM: The Open Source CFD Toolbox
   \\    /   O peration     | Website:  https://openfoam.org
    \\  /    A nd           | Version:  7
     \\/     M anipulation  |
\*---------------------------------------------------------------------------*/
FoamFile
{
    version     2.0;
    format      ascii;
    class       volVectorField;
    location    "5";
    object      U;
}
// * * * * * * * * * * * * * * * * * * * * * * * * * * * * * * * * * * * * * //

dimensions      [0 1 -1 0 0 0 0];

internalField   nonuniform List<vector> 
8330
(
(-0.022608 0.0372447 -3.54857e-19)
(-0.0227389 0.0339783 4.99328e-19)
(-0.0230211 0.0310722 3.48192e-19)
(-0.0234649 0.0285512 -4.77007e-19)
(-0.0240618 0.0264133 -4.1063e-19)
(-0.0415797 0.0604028 -4.51509e-19)
(-0.0247826 0.0246308 4.11753e-19)
(-0.0408306 0.0538899 2.7473e-19)
(-0.0255777 0.0231546 -5.4321e-19)
(-0.0394795 0.0479024 4.11828e-19)
(-0.0263791 0.0219191 -4.36906e-20)
(-0.0373314 0.04242 -3.76412e-19)
(-0.0271064 0.0208512 1.95797e-19)
(-0.0341847 0.0373905 -2.45081e-19)
(0.00610653 0.0429435 7.52455e-20)
(-0.0276746 0.0198763 -1.81069e-19)
(-0.0298367 0.0327359 3.74135e-19)
(0.0202407 0.0357212 3.68623e-19)
(-0.0279958 0.0189203 5.26965e-19)
(-0.0240931 0.0283659 -2.85917e-19)
(0.0375585 0.0293194 3.70745e-19)
(0.15972 0.0275298 -6.24387e-20)
(-0.027978 0.0179121 3.02247e-19)
(-0.0167737 0.0241924 1.0621e-19)
(0.0582761 0.0236957 -8.66367e-19)
(0.199899 0.0227238 -3.72656e-20)
(-0.0275288 0.0167914 1.246e-19)
(-0.00771162 0.0201403 1.86259e-19)
(0.0825646 0.0188177 5.93788e-19)
(0.245289 0.0195699 5.59797e-19)
(-0.026559 0.0155139 -4.67473e-19)
(0.00324938 0.0161557 6.16272e-19)
(0.110553 0.0146826 -4.4122e-19)
(0.2956 0.0181544 -4.04779e-19)
(0.542126 0.0361167 -1.03784e-19)
(-0.0249852 0.0140531 7.47874e-19)
(0.0162571 0.0122127 -5.98694e-19)
(0.142329 0.0113332 4.27376e-19)
(0.35036 0.0185683 -1.06362e-19)
(0.613468 0.0419688 2.12301e-19)
(-0.0227296 0.0124006 -6.45541e-19)
(0.0314516 0.00831952 4.84008e-19)
(0.177927 0.00886663 6.68771e-20)
(0.408914 0.0208812 2.75169e-19)
(0.684956 0.049643 -1.92771e-20)
(0.94163 0.0815041 9.10768e-20)
(-0.0197199 0.0105646 1.61591e-19)
(0.048965 0.00452153 -8.03594e-19)
(0.217313 0.0074336 -2.39008e-19)
(0.470439 0.0251151 1.88936e-19)
(0.755217 0.0588691 -1.89296e-19)
(1.00349 0.0923328 -1.12327e-20)
(1.18113 0.115744 2.11046e-19)
(-0.0158886 0.00856765 -3.01481e-19)
(0.0689187 0.0009027 7.12323e-19)
(0.260361 0.00722383 -2.74166e-19)
(0.533986 0.0312303 -3.8851e-19)
(0.823074 0.0693888 4.08381e-20)
(1.05966 0.103702 -2.45182e-21)
(1.21912 0.125839 2.16351e-19)
(-0.011172 0.00644479 2.19821e-19)
(0.0914177 -0.00241457 1.5162e-19)
(0.306832 0.0084407 3.70286e-19)
(0.598541 0.0391289 4.24896e-19)
(0.887591 0.0809711 -5.23788e-20)
(1.10998 0.115446 8.70022e-20)
(1.25116 0.135924 -2.62182e-19)
(1.32583 0.142606 2.89568e-19)
(-0.00550992 0.00424107 -1.94089e-20)
(0.116541 -0.00527152 -2.8904e-19)
(0.356364 0.0112701 -3.52855e-19)
(0.663093 0.0486716 -1.17924e-19)
(0.948079 0.093417 1.88195e-19)
(1.15449 0.127435 -4.15263e-20)
(1.27778 0.145949 -1.25156e-19)
(1.33812 0.150578 1.22453e-19)
(1.35946 0.145447 4.41648e-19)
(0.0011549 0.00201012 -1.31279e-19)
(0.14433 -0.00747757 -3.7758e-19)
(0.408471 0.0158526 4.25625e-19)
(0.72669 0.0596991 -1.11963e-19)
(1.00408 0.106559 1.31759e-20)
(1.1934 0.139571 9.30072e-21)
(1.29954 0.155883 3.23521e-20)
(1.34705 0.158447 -3.6076e-19)
(1.36045 0.151918 1.15753e-19)
(1.35698 0.140345 2.42103e-19)
(0.00887708 -0.000186564 2.92327e-20)
(0.174774 -0.00881823 1.6961e-19)
(0.46257 0.0222671 2.88504e-19)
(0.788495 0.072049 -5.68193e-20)
(1.05533 0.120257 2.48388e-19)
(1.22702 0.151779 1.11534e-19)
(1.31701 0.165715 2.84714e-19)
(1.35314 0.166232 2.78252e-19)
(1.35988 0.158386 -3.35902e-19)
(1.35304 0.146163 -2.54564e-19)
(1.34076 0.131996 -2.91943e-19)
(0.0177078 -0.00227971 4.43532e-20)
(0.2078 -0.00906689 7.23984e-20)
(0.518002 0.0305283 -7.32456e-19)
(0.847805 0.0855672 2.58852e-19)
(1.10174 0.134395 -2.19887e-19)
(1.2557 0.164009 -1.14009e-19)
(1.33069 0.175445 -1.58975e-19)
(1.35688 0.173959 -9.45912e-20)
(1.35807 0.164873 -2.29895e-19)
(1.34854 0.152033 4.20677e-19)
(1.33513 0.137568 6.60988e-20)
(1.32074 0.122456 1.27363e-19)
(0.0276931 -0.00419183 5.79242e-20)
(0.243265 -0.00799988 -1.25379e-19)
(0.574077 0.0405966 2.50051e-19)
(0.904066 0.100112 -2.32999e-19)
(1.14333 0.148877 -3.30093e-19)
(1.27986 0.176222 -1.86393e-19)
(1.3411 0.185081 -2.6798e-19)
(1.35865 0.181653 1.31806e-19)
(1.35527 0.171399 8.58748e-20)
(1.34362 0.157964 -2.1195e-19)
(1.32936 0.143193 1.95486e-20)
(1.31467 0.12804 -1.01619e-19)
(1.29974 0.11375 6.66792e-20)
(0.0388715 -0.00583687 -2.62555e-19)
(0.280952 -0.00541284 1.9505e-19)
(0.630105 0.0523926 -1.55878e-19)
(0.956871 0.115558 2.75548e-20)
(1.18023 0.163623 4.5103e-19)
(1.29988 0.188396 1.31906e-19)
(1.34865 0.194639 4.50343e-19)
(1.35878 0.189337 -1.88497e-19)
(1.35167 0.177977 3.03146e-20)
(1.33836 0.16396 2.31242e-19)
(1.32344 0.148867 -1.06439e-19)
(1.30854 0.133622 -1.53394e-20)
(1.29365 0.119052 -6.53115e-20)
(1.27958 0.102787 1.38244e-20)
(0.05127 -0.00712026 2.40006e-19)
(0.320573 -0.00113534 3.12292e-20)
(0.68543 0.0658128 1.07167e-19)
(1.00594 0.131791 -1.06166e-19)
(1.21261 0.178567 -9.31696e-20)
(1.31618 0.200517 -1.62772e-19)
(1.35376 0.204133 1.17877e-19)
(1.35756 0.197031 1.73611e-19)
(1.34741 0.184618 -8.86472e-20)
(1.3328 0.170021 -1.05767e-19)
(1.31741 0.154586 1.06478e-19)
(1.30236 0.139196 4.98857e-20)
(1.28752 0.124323 -1.68735e-19)
(1.27355 0.108297 -9.16302e-20)
(0.0648996 -0.0079399 1.17471e-19)
(0.361783 0.00495889 -2.24539e-19)
(0.739452 0.0807402 2.85861e-19)
(1.0511 0.148709 8.46855e-20)
(1.24071 0.193652 -2.09566e-20)
(1.32913 0.21258 -1.39793e-19)
(1.35674 0.213583 -2.9924e-19)
(1.35521 0.20475 -2.14325e-19)
(1.3426 0.191326 2.11985e-19)
(1.327 0.176145 -1.11185e-19)
(1.31125 0.160343 7.85996e-20)
(1.29611 0.144759 -1.03958e-19)
(1.28136 0.129561 1.10964e-19)
(1.26749 0.113724 -3.12606e-20)
(0.0797513 -0.00818821 -2.17404e-19)
(0.404188 0.0129475 -3.0192e-19)
(0.791642 0.0970522 3.23756e-20)
(1.09228 0.16622 5.22645e-20)
(1.26479 0.208833 1.15277e-19)
(1.33908 0.224582 -5.01124e-20)
(1.35791 0.223004 -4.62769e-20)
(1.3519 0.212508 2.14502e-19)
(1.33733 0.198102 1.22001e-20)
(1.32096 0.182326 -6.58409e-20)
(1.30497 0.166131 -7.20035e-20)
(1.28978 0.150304 3.72219e-20)
(1.27513 0.134762 1.24617e-19)
(1.26139 0.119068 7.31165e-20)
(0.0957924 -0.00775549 -8.43173e-22)
(0.447365 0.022861 3.38055e-19)
(0.841554 0.114625 1.4298e-19)
(1.12948 0.184238 -1.66084e-19)
(1.28511 0.224071 1.10116e-19)
(1.34635 0.236524 9.36352e-20)
(1.35751 0.232409 7.79846e-20)
(1.34777 0.22031 -1.88109e-19)
(1.33165 0.204941 -9.40866e-20)
(1.31471 0.188554 7.61408e-20)
(1.29855 0.171937 9.363e-21)
(1.28336 0.155823 -4.86168e-20)
(1.26884 0.139923 -6.44949e-20)
(1.25523 0.124328 -1.80502e-20)
(0.112964 -0.00653412 5.76424e-20)
(0.490876 0.0346875 -2.57447e-20)
(0.888823 0.133333 -2.81817e-19)
(1.16273 0.202682 -1.04334e-19)
(1.30193 0.239332 -2.37786e-19)
(1.35125 0.248409 6.08883e-20)
(1.35574 0.241808 2.8936e-20)
(1.34293 0.228158 7.09612e-20)
(1.32561 0.211838 -3.59324e-20)
(1.30824 0.194819 5.50297e-20)
(1.29198 0.177752 -2.20721e-20)
(1.27683 0.16131 2.79373e-20)
(1.26247 0.145036 -2.46125e-21)
(1.249 0.129501 -4.10037e-20)
(0.131183 -0.0044233 1.01564e-19)
(0.534281 0.0483803 -1.78771e-19)
(0.933163 0.153057 2.13635e-20)
(1.19213 0.221475 1.43546e-19)
(1.31551 0.254588 1.92559e-19)
(1.35401 0.260237 -1.37669e-19)
(1.35277 0.251208 8.51133e-20)
(1.33747 0.23605 1.36716e-20)
(1.31921 0.218782 -4.02986e-20)
(1.30155 0.201107 -4.32065e-20)
(1.28526 0.183562 5.4279e-20)
(1.27019 0.166754 5.66007e-20)
(1.25601 0.150096 -1.70311e-20)
(1.2427 0.134583 4.26755e-20)
(0.150336 -0.00133375 8.59292e-20)
(0.577154 0.0638643 6.55721e-20)
(0.974359 0.173675 1.39916e-19)
(1.21779 0.240541 -5.62457e-20)
(1.32611 0.269811 -7.8832e-20)
(1.35488 0.272009 8.516e-20)
(1.34875 0.260608 -9.30015e-20)
(1.33144 0.243979 -1.02685e-19)
(1.31248 0.225759 6.89189e-20)
(1.29465 0.207406 -4.53627e-20)
(1.27838 0.189354 -7.22467e-20)
(1.26342 0.172146 -5.81558e-20)
(1.24945 0.155094 4.05703e-20)
(1.2363 0.139569 -8.49539e-21)
(0.170293 0.00280843 -1.10363e-19)
(0.619088 0.0810426 5.169e-20)
(1.01226 0.195071 -9.93591e-20)
(1.23986 0.259807 -2.16874e-20)
(1.33396 0.284977 9.12678e-20)
(1.35403 0.28372 5.73776e-21)
(1.34378 0.270006 -5.30554e-21)
(1.32488 0.251933 4.23783e-20)
(1.30544 0.232754 -4.50281e-20)
(1.28751 0.213697 4.78896e-20)
(1.27132 0.195113 3.86179e-20)
(1.25651 0.177474 4.40381e-20)
(1.24278 0.160023 -1.06603e-20)
(1.22982 0.144451 -9.0254e-21)
(0.190898 0.00805885 6.33022e-21)
(0.659708 0.0998005 3.33544e-20)
(1.04678 0.217131 -5.83062e-20)
(1.25847 0.279202 -1.36763e-20)
(1.33928 0.300061 -1.59728e-20)
(1.35165 0.295365 -1.0907e-20)
(1.33796 0.279393 -1.59831e-20)
(1.31783 0.259898 -3.45873e-20)
(1.29806 0.239748 1.96793e-20)
(1.28014 0.219965 2.30245e-20)
(1.26408 0.200825 -4.36002e-21)
(1.24945 0.182728 -2.25371e-21)
(1.23599 0.164872 -2.97328e-20)
(1.22323 0.149223 1.51991e-20)
(0.211983 0.0144534 5.23551e-21)
(0.698673 0.120009 -1.32693e-20)
(1.07786 0.23974 3.29758e-20)
(1.27378 0.298656 2.28544e-20)
(1.34226 0.315036 -8.09836e-21)
(1.34787 0.306933 -1.50887e-21)
(1.33135 0.288757 1.12267e-20)
(1.31032 0.267856 1.7315e-21)
(1.29037 0.246721 -3.33073e-21)
(1.27252 0.22619 -1.49174e-20)
(1.25664 0.206471 -4.31542e-22)
(1.24224 0.187894 -9.83169e-22)
(1.22908 0.16963 1.13109e-20)
(1.21654 0.153876 5.60158e-21)
(0.233366 0.0220078 4.39476e-21)
(0.735678 0.14153 -1.0318e-20)
(1.10549 0.262787 3.03449e-20)
(1.28595 0.318101 2.23986e-20)
(1.34308 0.329878 -6.61575e-21)
(1.34281 0.318411 -1.92636e-21)
(1.32402 0.298081 9.10985e-21)
(1.30234 0.275786 2.77394e-21)
(1.28235 0.253653 -3.49941e-21)
(1.26465 0.232353 -1.32162e-20)
(1.249 0.212037 3.66413e-23)
(1.23487 0.192961 -1.69506e-22)
(1.22203 0.174286 9.18325e-21)
(1.20974 0.158399 4.46511e-21)
(0.254855 0.0307189 -1.40084e-21)
(0.770462 0.164214 3.23413e-20)
(1.12969 0.286161 -5.45743e-20)
(1.29514 0.337468 -1.87961e-20)
(1.3419 0.344556 -4.45256e-21)
(1.33659 0.329781 -1.5531e-20)
(1.316 0.307345 -1.63219e-20)
(1.29392 0.283664 -3.17594e-20)
(1.274 0.260519 2.05785e-20)
(1.25652 0.238434 2.52461e-20)
(1.24115 0.217503 -8.53951e-21)
(1.22734 0.197913 -9.13833e-22)
(1.21485 0.178824 -2.02143e-20)
(1.20284 0.162782 7.79923e-21)
(0.276257 0.0405656 -1.12621e-19)
(0.802803 0.187906 5.69246e-20)
(1.1505 0.309753 -1.09553e-19)
(1.3015 0.356694 -1.45869e-20)
(1.33888 0.359041 1.02807e-19)
(1.32927 0.341022 -1.30751e-20)
(1.30733 0.316524 1.52994e-21)
(1.28506 0.291465 3.39859e-20)
(1.26532 0.267297 -3.14137e-20)
(1.24813 0.244412 3.21946e-20)
(1.23308 0.222854 3.26686e-20)
(1.21962 0.202736 2.89891e-20)
(1.20753 0.18323 -9.53881e-21)
(1.19583 0.167014 -1.2226e-20)
(0.297375 0.0515109 6.44131e-20)
(0.832518 0.212446 6.33808e-20)
(1.16798 0.333453 1.3412e-19)
(1.30519 0.375713 -2.62482e-20)
(1.33414 0.3733 -1.00145e-19)
(1.32095 0.352108 9.02618e-20)
(1.29803 0.32559 -7.85852e-20)
(1.27575 0.29916 -8.10558e-20)
(1.2563 0.273959 5.90701e-20)
(1.23946 0.250264 -3.95615e-20)
(1.2248 0.228069 -5.4511e-20)
(1.21174 0.207417 -4.61317e-20)
(1.20007 0.187491 3.05127e-20)
(1.18868 0.171081 -2.12814e-21)
(0.318016 0.0635039 8.05896e-20)
(0.859465 0.237672 -1.63874e-19)
(1.18222 0.357152 -2.64414e-21)
(1.30635 0.394462 1.48105e-19)
(1.32779 0.387299 1.4966e-19)
(1.31167 0.363011 -7.73144e-20)
(1.28813 0.334515 4.96282e-20)
(1.26601 0.30672 2.88737e-20)
(1.24693 0.280481 -3.83204e-20)
(1.23052 0.255968 -3.14385e-20)
(1.21629 0.233131 3.40451e-20)
(1.20367 0.211937 3.75067e-20)
(1.19248 0.191602 -1.5598e-20)
(1.18137 0.17498 2.25201e-20)
(0.337992 0.076481 6.8029e-20)
(0.883537 0.263421 -2.99446e-20)
(1.19329 0.38074 -2.54688e-19)
(1.30511 0.412878 -9.38583e-20)
(1.31995 0.401 -2.43619e-19)
(1.30149 0.373699 6.37516e-20)
(1.27764 0.343266 3.16901e-20)
(1.25583 0.314116 4.12245e-20)
(1.23723 0.286836 3.99785e-21)
(1.2213 0.261503 3.87343e-20)
(1.20755 0.238018 -1.84746e-20)
(1.19543 0.216274 -3.09514e-21)
(1.18477 0.195561 2.68953e-21)
(1.1739 0.178715 -1.83231e-20)
(0.357123 0.0903669 -3.85269e-21)
(0.904662 0.28953 3.83577e-19)
(1.20129 0.404112 1.02804e-19)
(1.30161 0.430899 -1.11535e-19)
(1.31071 0.414363 5.36314e-20)
(1.29046 0.384136 9.70257e-20)
(1.26657 0.351809 3.22318e-20)
(1.24522 0.321314 -1.11013e-19)
(1.22718 0.292998 -7.52053e-20)
(1.2118 0.266846 7.69553e-20)
(1.19859 0.242713 -5.75738e-21)
(1.18701 0.220407 -2.77576e-20)
(1.17691 0.19935 -2.84369e-20)
(1.16635 0.182255 -9.93993e-21)
(0.375243 0.105076 -1.8849e-19)
(0.922794 0.31584 -3.646e-19)
(1.20632 0.42716 1.00662e-20)
(1.29597 0.448463 1.34814e-19)
(1.30015 0.427349 6.09225e-20)
(1.27861 0.394286 -4.38005e-20)
(1.25494 0.360107 -4.44062e-20)
(1.23418 0.328284 1.4462e-19)
(1.21677 0.298936 -1.90587e-21)
(1.20203 0.271974 -2.53516e-20)
(1.18941 0.247197 -4.38556e-20)
(1.17842 0.224332 2.60149e-20)
(1.16887 0.202938 5.0598e-20)
(1.15872 0.185601 3.91808e-20)
(0.392194 0.120513 8.20806e-20)
(0.937916 0.342192 -1.94754e-19)
(1.20849 0.44978 2.33182e-19)
(1.28832 0.465507 5.63367e-20)
(1.28835 0.439913 1.1245e-20)
(1.26598 0.40411 -1.20901e-19)
(1.24275 0.368127 -1.28327e-19)
(1.2227 0.334994 -1.37581e-19)
(1.20602 0.304618 1.18463e-19)
(1.192 0.276862 -6.37252e-20)
(1.18002 0.251446 3.26636e-20)
(1.16967 0.228039 -2.66988e-20)
(1.16066 0.206313 2.44654e-20)
(1.15099 0.188724 -1.76869e-20)
(0.407838 0.136575 2.56891e-19)
(0.950031 0.368431 9.30596e-20)
(1.20791 0.47187 -1.90831e-20)
(1.27877 0.481969 -3.42921e-20)
(1.27538 0.45201 -8.87397e-20)
(1.25259 0.413566 -4.5933e-20)
(1.23001 0.375826 3.97555e-20)
(1.2108 0.341415 1.06651e-19)
(1.19495 0.31002 -6.45304e-20)
(1.18171 0.281479 -6.35835e-21)
(1.17041 0.255448 1.84104e-20)
(1.16074 0.23151 1.33087e-20)
(1.15232 0.209464 -5.76243e-20)
(1.14316 0.191617 -2.01413e-20)
(0.422049 0.15315 -2.91842e-19)
(0.959161 0.394405 2.77081e-19)
(1.20468 0.493329 -1.93454e-19)
(1.26743 0.497788 5.72861e-20)
(1.26131 0.463596 2.26744e-19)
(1.23847 0.422614 1.71524e-19)
(1.21673 0.383163 1.75547e-19)
(1.19853 0.347507 -6.24932e-20)
(1.18358 0.31512 -2.11631e-21)
(1.17112 0.28581 8.30191e-20)
(1.16059 0.259174 -3.92196e-20)
(1.15164 0.234729 4.54105e-21)
(1.14385 0.212375 -1.48794e-20)
(1.13523 0.194264 1.5761e-20)
(0.434721 0.170124 1.04844e-19)
(0.965349 0.419966 -1.50438e-19)
(1.19894 0.514058 2.03865e-19)
(1.2544 0.512904 -1.45805e-19)
(1.24619 0.474625 -2.34865e-19)
(1.22366 0.431216 -1.09918e-19)
(1.20296 0.3901 -1.27956e-19)
(1.18585 0.353228 5.61239e-20)
(1.17187 0.319893 4.6518e-20)
(1.16029 0.289832 -9.7385e-20)
(1.15056 0.262609 3.72305e-20)
(1.14238 0.237678 -4.28851e-20)
(1.13525 0.215033 3.30612e-20)
(1.12721 0.196655 -1.72697e-20)
(0.445765 0.187373 -1.93311e-20)
(0.968649 0.44497 9.04508e-20)
(1.19079 0.533962 -6.18549e-19)
(1.23978 0.527255 1.38638e-19)
(1.23007 0.485044 -1.36167e-19)
(1.2082 0.439321 -1.58295e-20)
(1.18872 0.396609 -5.46644e-20)
(1.17276 0.358551 -2.34836e-20)
(1.15984 0.324303 -5.91043e-20)
(1.14921 0.293522 8.90584e-20)
(1.14034 0.265733 2.77279e-20)
(1.13297 0.240342 2.92444e-20)
(1.12652 0.217424 -2.77134e-20)
(1.1191 0.198782 1.23176e-20)
(0.455108 0.204772 1.00792e-19)
(0.969134 0.469279 1.75245e-19)
(1.18035 0.552949 2.29533e-19)
(1.22367 0.540786 -5.57423e-20)
(1.21302 0.494802 1.14304e-19)
(1.19213 0.446887 1.08265e-19)
(1.174 0.402647 1.10653e-19)
(1.1593 0.36345 7.14818e-20)
(1.14752 0.328325 -5.06041e-20)
(1.13789 0.296858 -6.66036e-20)
(1.12993 0.268528 8.90396e-21)
(1.1234 0.242706 -1.99137e-20)
(1.11768 0.219534 2.17547e-20)
(1.11092 0.200632 7.92018e-21)
(0.462698 0.222194 -1.99851e-19)
(0.966887 0.492757 -3.32796e-19)
(1.16775 0.570928 3.35173e-19)
(1.20616 0.553438 -8.50936e-20)
(1.1951 0.503857 -2.21846e-20)
(1.17546 0.45386 4.11771e-20)
(1.15882 0.408179 1.74692e-20)
(1.14548 0.367893 -8.61386e-20)
(1.13492 0.331932 3.47034e-20)
(1.12635 0.299818 -3.0267e-20)
(1.11935 0.270977 -3.29746e-20)
(1.1137 0.244756 2.37586e-20)
(1.10873 0.22135 3.92036e-21)
(1.10266 0.202199 1.56791e-22)
(0.468499 0.239509 -4.09397e-20)
(0.962 0.515276 -2.66516e-19)
(1.1531 0.587815 -3.23712e-19)
(1.18735 0.56515 -1.66846e-21)
(1.17639 0.512167 5.33128e-20)
(1.1582 0.460199 1.9365e-21)
(1.1432 0.413162 -4.32802e-20)
(1.13132 0.371849 3.12232e-20)
(1.12204 0.335101 2.37765e-20)
(1.1146 0.302381 5.29036e-20)
(1.1086 0.273063 -5.17671e-21)
(1.10386 0.246478 2.90302e-21)
(1.09967 0.222859 -3.78775e-21)
(1.09435 0.203471 -5.6835e-21)
(0.472493 0.256588 2.27216e-19)
(0.954575 0.536711 1.14826e-19)
(1.13653 0.603524 2.41669e-19)
(1.16734 0.575865 2.55974e-19)
(1.15692 0.51968 -2.68642e-20)
(1.14041 0.465868 2.56956e-20)
(1.12718 0.417563 -4.97342e-20)
(1.11684 0.375288 -4.57485e-21)
(1.10892 0.337806 -5.08669e-21)
(1.10266 0.304525 -2.15949e-20)
(1.09771 0.274771 6.09172e-21)
(1.09391 0.247858 -6.49217e-21)
(1.09053 0.22405 2.16127e-21)
(1.086 0.204441 -5.39321e-21)
(0.474677 0.273303 -3.45792e-19)
(0.944732 0.55695 6.70971e-19)
(1.11815 0.617972 -1.7326e-19)
(1.14621 0.585528 -2.24952e-19)
(1.13673 0.526353 -2.91368e-20)
(1.12212 0.470826 2.43158e-20)
(1.11076 0.421345 5.87893e-20)
(1.10206 0.378181 5.58674e-20)
(1.09556 0.340025 5.31737e-20)
(1.09054 0.306233 2.19978e-21)
(1.08669 0.276084 3.29213e-22)
(1.08386 0.248885 1.01345e-21)
(1.0813 0.22491 3.95559e-21)
(1.0776 0.2051 4.13091e-21)
(0.475072 0.289529 5.99218e-20)
(0.932622 0.575902 -6.37863e-19)
(1.09805 0.631066 -1.63242e-19)
(1.12405 0.594079 1.00443e-19)
(1.11589 0.53214 -5.83029e-20)
(1.10336 0.475035 -4.04018e-21)
(1.094 0.424475 -4.63574e-20)
(1.08701 0.380501 -4.19518e-20)
(1.082 0.341735 -2.30498e-20)
(1.07827 0.307486 2.41615e-21)
(1.07555 0.276988 -1.327e-21)
(1.07371 0.249548 -4.05227e-21)
(1.072 0.22543 3.01228e-21)
(1.06918 0.20544 -1.46701e-20)
(0.473719 0.305136 -4.75979e-19)
(0.918424 0.593512 4.79202e-19)
(1.07629 0.642714 5.18269e-21)
(1.10094 0.601446 8.2271e-20)
(1.09446 0.536998 1.10448e-20)
(1.08419 0.478458 -2.47797e-20)
(1.07692 0.426923 5.39543e-20)
(1.07172 0.382223 2.14307e-20)
(1.06826 0.342915 1.94126e-21)
(1.06586 0.308266 1.01708e-20)
(1.06431 0.277471 3.88633e-21)
(1.06349 0.249836 3.2307e-21)
(1.06264 0.225598 5.93047e-21)
(1.06075 0.205452 -7.08742e-21)
(0.47068 0.319981 5.76534e-19)
(0.90225 0.609706 -4.22257e-19)
(1.053 0.652878 2.47797e-19)
(1.07698 0.607556 -7.43688e-20)
(1.07249 0.540884 4.35071e-20)
(1.06463 0.481059 1.42067e-20)
(1.05955 0.42866 -6.24196e-21)
(1.05621 0.383322 -8.24602e-21)
(1.05435 0.343546 7.40285e-22)
(1.05334 0.308559 2.29275e-21)
(1.053 0.277519 -7.42342e-21)
(1.05321 0.249738 -2.23193e-20)
(1.05323 0.225406 -5.503e-20)
(1.05232 0.205131 3.36131e-20)
(0.466013 0.333929 -3.24339e-19)
(0.884037 0.624275 3.83902e-19)
(1.02848 0.661627 -1.78475e-19)
(1.05228 0.612369 -1.54357e-19)
(1.05006 0.543755 3.32759e-20)
(1.04474 0.482808 4.10701e-20)
(1.04193 0.429658 -1.0461e-20)
(1.04052 0.383776 -2.0468e-21)
(1.04031 0.34361 -1.09154e-20)
(1.04072 0.308348 -2.79069e-20)
(1.04163 0.27712 -4.3692e-21)
(1.04289 0.249248 1.25275e-20)
(1.0438 0.224841 -3.22833e-20)
(1.04391 0.204466 3.34581e-20)
(0.459761 0.34691 9.80084e-20)
(0.86384 0.637029 4.69068e-20)
(1.00291 0.668895 2.8301e-19)
(1.02693 0.615894 1.49033e-19)
(1.02721 0.545579 -7.40454e-20)
(1.02457 0.483673 -3.42177e-20)
(1.02411 0.429892 1.25829e-20)
(1.02467 0.383566 1.9655e-20)
(1.02617 0.343091 -1.0564e-20)
(1.02804 0.307621 1.46203e-20)
(1.03022 0.276265 1.15403e-20)
(1.03255 0.248355 2.14104e-21)
(1.03436 0.223891 2.15784e-20)
(1.03553 0.203437 -7.32514e-20)
(0.451991 0.35886 1.73714e-19)
(0.841922 0.647946 -8.8438e-21)
(0.976342 0.674559 -2.53054e-19)
(1.00101 0.618107 -1.92062e-20)
(1.00402 0.546323 2.42097e-20)
(1.00415 0.483629 9.73601e-21)
(1.00611 0.429342 3.70544e-20)
(1.0087 0.382672 -5.30656e-21)
(1.01194 0.341973 2.70588e-20)
(1.01531 0.306366 3.44574e-20)
(1.0188 0.274946 -6.7551e-21)
(1.0222 0.247054 1.33227e-20)
(1.02492 0.22254 6.67481e-20)
(1.02721 0.202015 -1.55857e-20)
(0.442755 0.369691 2.44381e-19)
(0.818504 0.657 -1.7978e-19)
(0.948874 0.678548 1.19735e-19)
(0.974609 0.618977 -9.38015e-21)
(0.98055 0.54596 -1.29748e-20)
(0.983544 0.482649 -3.64712e-20)
(0.987976 0.427986 -1.39843e-20)
(0.992654 0.38108 2.08236e-20)
(0.997666 0.340244 3.88162e-20)
(1.00257 0.304573 -8.40783e-21)
(1.00738 0.273154 3.06268e-21)
(1.01185 0.245338 4.8099e-21)
(1.01549 0.220782 7.73277e-21)
(1.01899 0.200205 1.49095e-19)
(0.432107 0.379276 -1.12124e-19)
(0.793769 0.664142 1.1009e-19)
(0.920626 0.680819 5.56457e-20)
(0.947813 0.618476 -5.38331e-21)
(0.956859 0.544467 1.79331e-20)
(0.9628 0.480713 -8.56763e-21)
(0.969759 0.425807 -1.44802e-20)
(0.976553 0.378774 5.20162e-22)
(0.983374 0.337893 -2.31622e-20)
(0.989834 0.302232 2.51483e-20)
(0.995991 0.270881 2.3581e-20)
(1.00151 0.243196 -2.86891e-20)
(1.00616 0.218614 -4.0009e-20)
(1.01111 0.198067 2.78379e-20)
(0.420164 0.387533 3.42455e-20)
(0.767872 0.669313 -1.11333e-19)
(0.891721 0.681344 -6.91365e-20)
(0.920711 0.616578 1.2504e-20)
(0.933017 0.541823 -2.47497e-20)
(0.94197 0.477803 8.53365e-20)
(0.951498 0.422792 -4.04397e-20)
(0.960442 0.375744 -2.41459e-21)
(0.969096 0.33491 -1.16671e-19)
(0.977136 0.299337 -4.33899e-20)
(0.984632 0.268121 -2.93768e-20)
(0.991205 0.240608 -7.41306e-20)
(0.997028 0.216008 -5.02703e-20)
(1.00384 0.195643 -1.31527e-19)
(0.407056 0.3944 -5.82154e-20)
(0.740959 0.672463 -7.60969e-20)
(0.862285 0.680095 2.76615e-20)
(0.893396 0.613262 4.12023e-20)
(0.909089 0.538009 1.10883e-20)
(0.921109 0.473903 -1.64511e-19)
(0.93324 0.418928 1.3983e-20)
(0.944356 0.371981 -8.9148e-20)
(0.954865 0.331288 8.03765e-20)
(0.964496 0.295885 3.32424e-22)
(0.973321 0.264869 4.99835e-20)
(0.98097 0.237563 1.77138e-19)
(0.988226 0.212901 -1.16109e-19)
(0.996964 0.19271 8.92131e-21)
(0.392901 0.39982 -1.39316e-19)
(0.713184 0.673552 5.62061e-20)
(0.832444 0.677053 5.01394e-20)
(0.865957 0.608512 -1.14736e-19)
(0.885146 0.533012 -2.28067e-20)
(0.900272 0.469001 -2.65953e-20)
(0.915029 0.414207 1.60544e-19)
(0.928337 0.367477 1.26737e-19)
(0.940714 0.327025 -1.06994e-19)
(0.95194 0.291874 -1.2211e-21)
(0.962084 0.261127 -6.49653e-20)
(0.970876 0.234089 -1.62446e-19)
(0.979745 0.209363 7.31678e-20)
(0.989575 0.187999 -1.68348e-20)
(0.377819 0.40374 2.89835e-20)
(0.684701 0.672552 -1.50485e-20)
(0.802325 0.672208 -1.06713e-19)
(0.838487 0.602315 2.66226e-20)
(0.861255 0.526823 -5.39206e-20)
(0.879516 0.46309 4.27035e-20)
(0.896914 0.408622 -1.36053e-19)
(0.912422 0.36223 1.14688e-20)
(0.926675 0.322116 -3.32458e-21)
(0.939493 0.287302 -1.43783e-19)
(0.950965 0.256892 8.76273e-20)
(0.960976 0.230194 1.02619e-19)
(0.97125 0.205824 4.31783e-20)
(0.98121 0.184573 1.76116e-19)
(0.361931 0.406118 -1.57609e-20)
(0.655668 0.669445 6.19622e-20)
(0.772055 0.665551 5.9988e-20)
(0.811076 0.594667 3.71037e-20)
(0.837488 0.519436 1.30332e-19)
(0.858897 0.456165 2.13662e-19)
(0.878942 0.40217 5.08944e-20)
(0.896654 0.356236 3.37026e-20)
(0.912782 0.316562 2.49633e-19)
(0.927186 0.282168 -6.56292e-20)
(0.939997 0.252158 1.91034e-21)
(0.951267 0.225824 -1.08937e-19)
(0.962764 0.201752 8.21722e-20)
(0.972984 0.180526 8.32847e-21)
(0.345362 0.406923 7.70695e-20)
(0.626239 0.664219 -1.15513e-20)
(0.741758 0.657084 1.22861e-19)
(0.783817 0.585565 -2.70679e-20)
(0.813914 0.510849 1.82655e-20)
(0.838474 0.448225 -4.20913e-20)
(0.861161 0.394853 1.3179e-19)
(0.881072 0.349497 7.78424e-22)
(0.899068 0.310363 -1.02234e-19)
(0.915049 0.276475 1.95589e-19)
(0.929204 0.246936 -9.20315e-20)
(0.941727 0.22103 6.21785e-20)
(0.954302 0.197364 -7.8483e-21)
(0.964912 0.176468 -2.38857e-19)
(0.328234 0.40613 -1.72586e-20)
(0.596568 0.656875 -1.38093e-19)
(0.711558 0.646814 -1.00994e-19)
(0.756801 0.575014 1.99189e-19)
(0.790603 0.501066 -1.27947e-20)
(0.818303 0.439273 7.62327e-20)
(0.843619 0.386671 -1.37204e-19)
(0.865717 0.342017 -2.30674e-19)
(0.885567 0.303525 1.20737e-19)
(0.903112 0.270226 -5.17291e-20)
(0.918612 0.241225 1.34307e-19)
(0.932363 0.215799 2.84083e-21)
(0.94593 0.192589 -1.58614e-19)
(0.957053 0.172124 3.69472e-21)
(0.310674 0.403725 -1.36666e-19)
(0.566808 0.64742 4.45107e-20)
(0.681576 0.634754 -1.45749e-19)
(0.730116 0.563025 -1.63504e-19)
(0.767626 0.490093 -6.37971e-20)
(0.798443 0.429316 6.59067e-20)
(0.826365 0.377633 -1.64751e-19)
(0.850629 0.333801 1.5536e-19)
(0.872313 0.296052 -2.12221e-19)
(0.891406 0.263427 1.43126e-19)
(0.908241 0.235034 1.40337e-19)
(0.923191 0.210148 -4.42136e-20)
(0.9377 0.187468 1.65013e-19)
(0.949426 0.167513 1.82521e-19)
(0.292807 0.399703 3.23905e-20)
(0.537109 0.63587 8.16304e-21)
(0.651932 0.620924 2.79232e-19)
(0.703853 0.549612 2.35205e-19)
(0.745053 0.477943 1.17276e-19)
(0.778952 0.418363 -6.24033e-20)
(0.809448 0.367748 -1.31155e-19)
(0.835849 0.324859 -8.02603e-20)
(0.859342 0.287953 8.82692e-20)
(0.87996 0.256085 -2.76965e-19)
(0.898114 0.22837 -1.30444e-19)
(0.914231 0.204085 -8.97057e-20)
(0.929648 0.181997 5.2261e-20)
(0.942039 0.162607 -2.93859e-19)
(0.274754 0.394068 1.90172e-20)
(0.50762 0.62225 -6.14587e-20)
(0.622743 0.60535 1.38297e-20)
(0.678099 0.534795 -3.27837e-19)
(0.722953 0.46463 -9.62357e-20)
(0.759886 0.406428 -2.02644e-19)
(0.792914 0.357027 3.72828e-20)
(0.821416 0.315201 -1.08599e-19)
(0.846686 0.279238 -6.21202e-20)
(0.868803 0.24821 1.08611e-19)
(0.888253 0.221241 -1.32096e-19)
(0.905504 0.197619 -4.39986e-20)
(0.921805 0.176184 -1.82299e-20)
(0.934899 0.1574 3.20935e-19)
(0.25664 0.386832 6.53337e-21)
(0.478484 0.606595 -6.85108e-20)
(0.594123 0.588066 9.93698e-20)
(0.652939 0.5186 1.08591e-19)
(0.701395 0.450177 2.30295e-20)
(0.741303 0.39353 3.63799e-19)
(0.776811 0.345486 -1.15931e-19)
(0.807371 0.304841 2.73681e-19)
(0.834379 0.269919 6.90918e-20)
(0.857964 0.239813 -2.02687e-19)
(0.878681 0.213658 1.39327e-19)
(0.897032 0.190759 2.59405e-19)
(0.914194 0.170035 -1.2823e-19)
(0.928013 0.151891 -2.41935e-19)
(0.238582 0.378014 7.77088e-20)
(0.449845 0.588946 -1.58188e-19)
(0.566184 0.569109 -5.72222e-19)
(0.628458 0.501058 -1.48973e-19)
(0.680445 0.434607 1.86852e-19)
(0.723258 0.379689 4.77986e-21)
(0.761187 0.333144 1.22763e-19)
(0.793753 0.293795 -1.87401e-19)
(0.822455 0.260011 -2.73533e-19)
(0.84747 0.230906 1.95219e-19)
(0.869421 0.205633 2.01806e-20)
(0.888839 0.183518 -7.47747e-21)
(0.906835 0.163554 1.28634e-19)
(0.92139 0.146082 1.32482e-19)
(0.2207 0.36764 -2.27738e-19)
(0.421838 0.569354 1.12208e-19)
(0.539033 0.548525 1.36909e-19)
(0.604739 0.482204 3.18565e-20)
(0.660169 0.41795 4.63973e-20)
(0.705805 0.364929 -2.55002e-19)
(0.746085 0.320022 -5.29255e-20)
(0.780599 0.282083 -6.76418e-20)
(0.810945 0.24953 3.6883e-19)
(0.837348 0.221503 5.52067e-20)
(0.860497 0.197179 1.03608e-20)
(0.880944 0.175906 -2.35395e-19)
(0.899749 0.156751 3.48272e-20)
(0.915039 0.139981 -7.86906e-20)
(0.203108 0.355748 1.23528e-19)
(0.394598 0.547877 5.67692e-19)
(0.512774 0.526365 2.98391e-19)
(0.581859 0.462078 3.54903e-19)
(0.640632 0.400238 -3.63229e-19)
(0.688999 0.349279 7.4397e-20)
(0.731551 0.306144 1.21326e-20)
(0.767947 0.269724 3.95584e-19)
(0.799882 0.238493 -4.10958e-19)
(0.827625 0.211622 -2.03509e-19)
(0.851931 0.18831 -1.24469e-19)
(0.873368 0.167935 -9.60174e-20)
(0.892952 0.149634 -1.63288e-19)
(0.908971 0.133597 1.0688e-19)
(0.185918 0.342378 -1.34968e-20)
(0.368252 0.524579 -2.15338e-19)
(0.487508 0.502686 1.0634e-19)
(0.559897 0.440726 5.27716e-21)
(0.621894 0.381508 1.18246e-19)
(0.672889 0.33277 1.71541e-21)
(0.717627 0.291537 1.02902e-19)
(0.755834 0.256743 6.48107e-20)
(0.789295 0.226923 3.94683e-19)
(0.818326 0.20128 3.60148e-19)
(0.843744 0.179041 1.42518e-19)
(0.86613 0.159619 2.43081e-19)
(0.886461 0.142213 8.85886e-20)
(0.903197 0.126941 1.85853e-20)
(0.169238 0.327584 1.5981e-19)
(0.342923 0.499533 -1.68531e-20)
(0.46333 0.47755 -8.34667e-20)
(0.538926 0.418197 -9.73893e-20)
(0.604017 0.361801 3.3384e-19)
(0.657526 0.315438 5.05838e-20)
(0.704356 0.276231 3.37377e-20)
(0.744293 0.243164 -3.26007e-19)
(0.779213 0.214839 1.61957e-19)
(0.809477 0.190495 -1.26466e-19)
(0.835956 0.169391 4.11168e-20)
(0.859248 0.150972 -2.68797e-19)
(0.880292 0.1345 7.38839e-20)
(0.897726 0.120025 3.51882e-20)
(0.153171 0.31142 4.28654e-20)
(0.318727 0.472817 -8.84088e-20)
(0.440331 0.451026 -2.70143e-19)
(0.519016 0.394545 3.96982e-19)
(0.587056 0.341162 -5.53963e-19)
(0.642958 0.297318 -1.66189e-19)
(0.691777 0.260258 -2.51397e-19)
(0.73336 0.229017 2.66826e-19)
(0.769666 0.202268 -2.66451e-19)
(0.8011 0.179289 -2.85966e-19)
(0.828589 0.159376 1.53663e-19)
(0.852739 0.142009 5.18155e-20)
(0.874458 0.126509 -6.67623e-20)
(0.892569 0.112862 -5.87562e-20)
(0.137814 0.293953 -3.79535e-19)
(0.295774 0.444517 -1.9966e-19)
(0.418598 0.423184 8.28769e-20)
(0.500234 0.369829 -1.90733e-19)
(0.571066 0.319639 1.66913e-19)
(0.62923 0.278453 2.15674e-19)
(0.679929 0.243653 1.12365e-19)
(0.723065 0.21433 -6.30305e-20)
(0.76068 0.189234 -2.5499e-19)
(0.793219 0.167685 1.06909e-19)
(0.821661 0.149017 1.00837e-19)
(0.846619 0.132747 1.25326e-19)
(0.868976 0.118253 2.63467e-20)
(0.887735 0.105466 -1.14107e-19)
(0.123263 0.275251 5.51286e-20)
(0.274171 0.414723 1.85528e-19)
(0.398212 0.394104 2.6119e-19)
(0.482643 0.344111 -4.48971e-19)
(0.5561 0.297284 -3.71495e-19)
(0.616386 0.258886 -1.89237e-19)
(0.668847 0.226453 -3.16768e-19)
(0.713439 0.199135 1.44879e-19)
(0.75228 0.175765 3.52309e-19)
(0.785854 0.155706 1.7157e-19)
(0.81519 0.138334 -1.70552e-19)
(0.840904 0.123204 -1.58212e-19)
(0.863856 0.109748 1.27854e-19)
(0.883234 0.0978514 8.34649e-20)
(0.109603 0.255393 -2.4369e-19)
(0.254013 0.383535 2.00459e-19)
(0.37925 0.363866 -1.54249e-19)
(0.466303 0.317455 2.73544e-19)
(0.542205 0.274149 -3.648e-21)
(0.604465 0.238663 1.8906e-19)
(0.658566 0.208697 1.56964e-19)
(0.704512 0.183466 -1.69613e-19)
(0.744492 0.161889 -1.8464e-19)
(0.779027 0.143376 -4.84793e-20)
(0.809192 0.127348 1.80253e-20)
(0.835607 0.113399 2.05134e-19)