# Probe 0 (5.5 0.5 0.005)
# Probe 1 (5.5 -0.5 0.005)
# Probe 2 (2.5 0.5 0.005)
# Probe 3 (2.5 -0.5 0.005)
# Probe 4 (4 0.5 0.005)
# Probe 5 (4 -0.5 0.005)
# Probe 6 (1.5 1 0.005)
# Probe 7 (1.5 -1 0.005)
#       Probe             0             1             2             3             4             5             6             7
#        Time
        0.005     -0.652167     -0.652307      -8.47757      -8.47921      -3.03064      -3.03123      -10.2327      -10.2384
         0.01     0.0246953       0.02489      0.413643      0.415467      0.154524      0.155368     -0.695977     -0.690522
        0.015     -0.012063    -0.0121055     -0.144923     -0.145228    -0.0592876    -0.0594672     -0.221677     -0.222397
         0.02    -0.0104056    -0.0104218     -0.125526     -0.125625    -0.0493496    -0.0494214     -0.184025     -0.184235
        0.025   -0.00918976   -0.00919711     -0.109028     -0.109064    -0.0428414    -0.0428756     -0.156725     -0.156784
         0.03   -0.00815611   -0.00815958    -0.0953948    -0.0954054    -0.0376043    -0.0376222     -0.136106     -0.136104
        0.035   -0.00728167   -0.00728357     -0.084018      -0.08402    -0.0332875    -0.0332981     -0.119886     -0.119863
         0.04   -0.00653281   -0.00653318    -0.0743804    -0.0743721    -0.0296585    -0.0296626     -0.106756     -0.106708
        0.045   -0.00588226   -0.00588184    -0.0661106    -0.0660972    -0.0265363    -0.0265369     -0.095883    -0.0958249
         0.05    -0.0053117   -0.00531093    -0.0589316     -0.058917    -0.0238232     -0.023822     -0.086727    -0.0866671
        0.055   -0.00480831   -0.00480729    -0.0526627    -0.0526468      -0.02145    -0.0214475    -0.0789179    -0.0788568
         0.06   -0.00436272   -0.00436157    -0.0471594    -0.0471437    -0.0193677    -0.0193646    -0.0721856    -0.0721241
        0.065   -0.00396569   -0.00396432    -0.0422993    -0.0422824    -0.0175254    -0.0175212     -0.066331    -0.0662673
         0.07    -0.0036114   -0.00360993     -0.037987    -0.0379702    -0.0158813    -0.0158761    -0.0612008    -0.0611386
        0.075   -0.00329678    -0.0032953    -0.0341413    -0.0341245    -0.0144523     -0.014447    -0.0566771     -0.056616
         0.08   -0.00301502   -0.00301362    -0.0306946    -0.0306789    -0.0131613    -0.0131557    -0.0526603    -0.0526031
        0.085   -0.00275718   -0.00275583    -0.0275955    -0.0275808    -0.0119992    -0.0119947    -0.0490788    -0.0490245
         0.09   -0.00252172   -0.00252044    -0.0247988    -0.0247849    -0.0109253    -0.0109209    -0.0458704    -0.0458188
        0.095    -0.0023079   -0.00230664    -0.0222714    -0.0222579   -0.00995272   -0.00994821    -0.0429883    -0.0429389
          0.1   -0.00211273    -0.0021116     -0.019976    -0.0199639   -0.00906697   -0.00906289    -0.0403855    -0.0403402
        0.105   -0.00193509   -0.00193402    -0.0178872    -0.0178758   -0.00826279   -0.00825887    -0.0380296    -0.0379868
         0.11   -0.00177248   -0.00177144    -0.0159811    -0.0159702   -0.00752711   -0.00752331    -0.0358903    -0.0358494
        0.115   -0.00162297   -0.00162196    -0.0142379    -0.0142273   -0.00685425   -0.00685043    -0.0339429    -0.0339034
         0.12   -0.00148598   -0.00148503    -0.0126425    -0.0126325   -0.00624108   -0.00623751    -0.0321659    -0.0321286
        0.125   -0.00135975   -0.00135889    -0.0111767    -0.0111677   -0.00567381   -0.00567057    -0.0305387    -0.0305045
         0.13   -0.00124286   -0.00124206   -0.00982353   -0.00981509   -0.00514784   -0.00514481    -0.0290433    -0.0290112
        0.135   -0.00113514   -0.00113439   -0.00857632   -0.00856849   -0.00466442   -0.00466159    -0.0276689    -0.0276387
         0.14   -0.00103533   -0.00103461   -0.00742422   -0.00741671   -0.00421618   -0.00421345    -0.0264035    -0.0263747
        0.145   -0.00094279  -0.000942112   -0.00635773   -0.00635065   -0.00380073   -0.00379815    -0.0252352    -0.0252079
         0.15  -0.000856998  -0.000856337   -0.00537008   -0.00536323   -0.00341579   -0.00341327    -0.0241559    -0.0241296
        0.155  -0.000777276  -0.000776658   -0.00445305   -0.00444663   -0.00305825   -0.00305589    -0.0231557    -0.0231309
         0.16   -0.00070327  -0.000702686   -0.00360209   -0.00359603   -0.00272663   -0.00272439     -0.022229    -0.0222055
        0.165  -0.000634385  -0.000633843   -0.00281071   -0.00280508   -0.00241802   -0.00241594    -0.0213687    -0.0213467
         0.17  -0.000570262  -0.000569753   -0.00207443   -0.00206914   -0.00213085   -0.00212889    -0.0205694    -0.0205486
        0.175  -0.000510476   -0.00051003   -0.00138821    -0.0013835    -0.0018632   -0.00186148     -0.019825    -0.0198061
         0.18   -0.00045488  -0.000454496  -0.000750735  -0.000746586   -0.00161444   -0.00161296    -0.0191344    -0.0191173
        0.185  -0.000402914  -0.000402556  -0.000154664   -0.00015079   -0.00138195   -0.00138056    -0.0184892    -0.0184731
         0.19  -0.000354399  -0.000354004   0.000401952   0.000406064   -0.00116491   -0.00116338    -0.0178879    -0.0178713
        0.195  -0.000308958  -0.000308613   0.000923796   0.000927449  -0.000961731  -0.000960387    -0.0173238    -0.0173087
          0.2  -0.000266474  -0.000266133    0.00141185    0.00141542  -0.000771767  -0.000770437    -0.0167973    -0.0167826
        0.205  -0.000226694  -0.000226375    0.00186915    0.00187249  -0.000593929  -0.000592685    -0.0163044    -0.0162905
         0.21  -0.000189386  -0.000189073    0.00229862    0.00230185  -0.000427161  -0.000425943    -0.0158421    -0.0158287
        0.215  -0.000154485  -0.000154191    0.00269988    0.00270291  -0.000271114  -0.000269969    -0.0154109    -0.0153983
         0.22  -0.000121608  -0.000121334    0.00307756    0.00308038  -0.000123368  -0.000122311    -0.0150059     -0.014994
        0.225  -9.09789e-05  -9.07335e-05    0.00343208    0.00343464   1.20157e-05    1.2973e-05    -0.0146265    -0.0146155
         0.23  -6.18212e-05  -6.15839e-05    0.00376862    0.00377108   0.000142112   0.000143041    -0.0142673    -0.0142567
        0.235  -3.44975e-05  -3.42652e-05    0.00408151     0.0040839   0.000263296   0.000264202    -0.0139346    -0.0139244
         0.24  -9.31053e-06  -9.08587e-06    0.00437829    0.00438058   0.000377346   0.000378225    -0.0136201    -0.0136103
        0.245   1.48632e-05   1.50835e-05    0.00465869    0.00466091   0.000485199   0.000486063    -0.0133243    -0.0133149
         0.25   3.77105e-05   3.79257e-05    0.00492357    0.00492573   0.000586804   0.000587649    -0.0130464    -0.0130373
        0.255   5.94301e-05   5.96378e-05    0.00517401    0.00517599   0.000682282    0.00068308    -0.0127849    -0.0127764
         0.26   8.15674e-05   8.17308e-05    0.00541191    0.00541365   0.000773193    0.00077382    -0.0125387    -0.0125307
        0.265   9.80288e-05   9.82058e-05    0.00563693    0.00563875   0.000859059   0.000859768    -0.0123079    -0.0123002
         0.27   0.000116242   0.000116417    0.00585209    0.00585384   0.000940289   0.000940979    -0.0120886    -0.0120812
        0.275   0.000133578   0.000133719     0.0060569    0.00605836    0.00101711    0.00101768    -0.0118816    -0.0118751
         0.28   0.000149782     0.0001499    0.00624885    0.00625011    0.00108857    0.00108902    -0.0116899     -0.011684
        0.285   0.000165329   0.000165453    0.00643369    0.00643497    0.00115674     0.0011572    -0.0115076    -0.0115017
         0.29    0.00017985   0.000179952     0.0066056    0.00660673    0.00121895    0.00121928    -0.0113407    -0.0113354
        0.295   0.000193564    0.00019369    0.00677098    0.00677216    0.00127157    0.00127145    -0.0111823    -0.0111769
          0.3   0.000206862    0.00020696    0.00693083    0.00693185    0.00133252    0.00133374    -0.0110313    -0.0110262
        0.305   0.000219691   0.000219789    0.00708361    0.00708468    0.00140161    0.00140198    -0.0108899     -0.010885
         0.31   0.000231873   0.000232004    0.00722889     0.0072302    0.00145639    0.00145687    -0.0107592    -0.0107537
        0.315   0.000243389   0.000243506    0.00736867    0.00736983    0.00150767    0.00150812    -0.0106348    -0.0106298
         0.32   0.000254334   0.000254448    0.00750291    0.00750407      0.001556    0.00155647    -0.0105179     -0.010513
        0.325   0.000264943   0.000265031    0.00763112    0.00763206     0.0016046    0.00160496    -0.0104094     -0.010405
         0.33   0.000275089   0.000275163    0.00775469     0.0077554    0.00165084    0.00165108    -0.0103073    -0.0103034
        0.335   0.000284831   0.000284903    0.00787488    0.00787568    0.00169457    0.00169488      -0.01021    -0.0102065
         0.34   0.000294076   0.000294157    0.00798955     0.0079904    0.00173613    0.00173646    -0.0101206    -0.0101169
        0.345   0.000302934    0.00030302    0.00809994    0.00810084    0.00177596    0.00177632    -0.0100372    -0.0100334
         0.35     0.0003113   0.000311408    0.00820455    0.00820558     0.0018136    0.00181403    -0.0099621   -0.00995782
        0.355    0.00031948   0.000319564    0.00830717    0.00830799    0.00185052    0.00185082   -0.00989012   -0.00988639
         0.36   0.000327224   0.000327299    0.00840424    0.00840498    0.00188551    0.00188576   -0.00982605   -0.00982254
        0.365   0.000334797   0.000334862    0.00849998    0.00850063    0.00191973    0.00191996   -0.00976463   -0.00976145
         0.37   0.000342086   0.000342147    0.00859266    0.00859332    0.00195272    0.00195297   -0.00970793     -0.009705
        0.375   0.000349008   0.000349046    0.00868087    0.00868133    0.00198405    0.00198421   -0.00965759   -0.00965525
         0.38    0.00035578   0.000355829    0.00876784    0.00876839    0.00201479      0.002015   -0.00961025   -0.00960766
        0.385   0.000362217   0.000362269    0.00885076    0.00885134    0.00204398    0.00204421   -0.00956866   -0.00956604
         0.39   0.000368418   0.000368484     0.0089311    0.00893175    0.00207215    0.00207242   -0.00953209   -0.00952933
        0.395   0.000374304   0.000374381     0.0090078    0.00900855    0.00209888    0.00209922   -0.00949953   -0.00949655
          0.4   0.000380056   0.000380117     0.0090824    0.00908307    0.00212503    0.00212525   -0.00947077   -0.00946798
        0.405   0.000385814   0.000385868    0.00915698    0.00915758    0.00215126    0.00215142   -0.00944419   -0.00944154
         0.41    0.00039128   0.000391339    0.00922801    0.00922864    0.00217618    0.00217642   -0.00942261   -0.00942001
        0.415   0.000396681   0.000396734     0.0092986    0.00929914     0.0022009    0.00220107   -0.00940336    -0.0094009
         0.42   0.000401819   0.000401866    0.00936618    0.00936669     0.0022244    0.00222455   -0.00938808   -0.00938568
        0.425   0.000406877    0.00040693    0.00943315    0.00943371    0.00224754    0.00224776   -0.00937491   -0.00937257
         0.43   0.000411809   0.000411858    0.00949912    0.00949962    0.00227016    0.00227035   -0.00936407   -0.00936191
        0.435   0.000416447     0.0004165    0.00956171    0.00956226    0.00229143    0.00229164    -0.0093584   -0.00935613
         0.44   0.000420735   0.000420782    0.00962086    0.00962136    0.00231126    0.00231145   -0.00935772   -0.00935567
        0.445   0.000424596   0.000424668    0.00967883    0.00967935    0.00233042    0.00233062    -0.0093598   -0.00935766
         0.45   0.000429645   0.000429685    0.00973737     0.0097379    0.00235166    0.00235187   -0.00936271   -0.00936053
        0.455   0.000433963      0.000434    0.00979469    0.00979513    0.00237147    0.00237164   -0.00936799   -0.00936611
         0.46   0.000438056   0.000438073    0.00985077    0.00985104    0.00239029    0.00239038   -0.00937561    -0.0093743
        0.465   0.000441881    0.00044191    0.00990418    0.00990452    0.00240808    0.00240818   -0.00938785   -0.00938618
         0.47   0.000445325   0.000445365    0.00995668    0.00995714    0.00242528    0.00242548   -0.00940219   -0.00940029
        0.475   0.000449324   0.000449378     0.0100079     0.0100084    0.00244232    0.00244244   -0.00941966   -0.00941765
         0.48   0.000453591   0.000453605     0.0100599     0.0100602    0.00245976    0.00245979   -0.00943739   -0.00943603
        0.485    0.00045752   0.000457549     0.0101129     0.0101132    0.00247739    0.00247752   -0.00945642   -0.00945484
         0.49   0.000460946   0.000460982     0.0101604     0.0101608    0.00249292    0.00249309   -0.00948049   -0.00947883
        0.495   0.000464291   0.000464333     0.0102075      0.010208    0.00250813    0.00250827   -0.00950661   -0.00950472
          0.5   0.000467457   0.000467492     0.0102517     0.0102521    0.00252242    0.00252248   -0.00953693   -0.00953508
        0.505   0.000470871   0.000470916     0.0102999     0.0103003    0.00253778    0.00253795   -0.00956546   -0.00956362
         0.51    0.00047388   0.000473925     0.0103431     0.0103436    0.00255123     0.0025514   -0.00959901    -0.0095972
        0.515   0.000476939   0.000476987     0.0103888     0.0103893    0.00256501    0.00256518   -0.00963194    -0.0096302
         0.52   0.000479904   0.000479926     0.0104337      0.010434    0.00257793    0.00257797   -0.00966736   -0.00966595
        0.525   0.000483088   0.000483134     0.0104754     0.0104758     0.0025892    0.00258928   -0.00970678   -0.00970522
         0.53   0.000486492   0.000486512     0.0105199     0.0105203     0.0026038    0.00260384   -0.00974533   -0.00974367
        0.535    0.00048977   0.000489805     0.0105618     0.0105623    0.00261774    0.00261774   -0.00978797   -0.00978606
         0.54   0.000492578   0.000492622     0.0106019     0.0106024    0.00262736    0.00262737   -0.00983357   -0.00983172
        0.545   0.000495243   0.000495294     0.0106409     0.0106414    0.00263222    0.00263189   -0.00988121   -0.00987936
         0.55   0.000498077   0.000498117     0.0106822     0.0106827    0.00264169     0.0026424   -0.00992746   -0.00992568
        0.555   0.000501055   0.000501083     0.0107228     0.0107233    0.00267354    0.00267473   -0.00997585   -0.00997433
         0.56   0.000503871   0.000503896     0.0107629     0.0107632    0.00269501    0.00269508    -0.0100261    -0.0100247
        0.565   0.000506623   0.000506634     0.0108031     0.0108033    0.00270862    0.00270865    -0.0100769    -0.0100759
         0.57   0.000509231    0.00050924     0.0108414     0.0108416    0.00272099    0.00272101    -0.0101321    -0.0101312
        0.575   0.000511878   0.000511877     0.0108798     0.0108799    0.00273347    0.00273334     -0.010188    -0.0101869
         0.58    0.00051476   0.000514788     0.0109223     0.0109226    0.00274701    0.00274713    -0.0102423     -0.010241
        0.585   0.000517182   0.000517209     0.0109581     0.0109584    0.00275841    0.00275854    -0.0103024    -0.0103011
         0.59   0.000519372   0.000519405     0.0109908     0.0109911    0.00276875     0.0027689     -0.010366    -0.0103645
        0.595   0.000521946   0.000521985     0.0110292     0.0110296    0.00278097    0.00278114    -0.0104271    -0.0104255
          0.6   0.000524038   0.000524073     0.0110607     0.0110611     0.0027909    0.00279106    -0.0104946    -0.0104931
        0.605   0.000526713   0.000526751     0.0111009     0.0111013    0.00280368    0.00280385     -0.010556    -0.0105544
         0.61   0.000529013   0.000529046     0.0111358     0.0111362    0.00281469    0.00281485    -0.0106231    -0.0106217
        0.615   0.000531335   0.000531362     0.0111713     0.0111716    0.00282587    0.00282603    -0.0106907    -0.0106895
         0.62   0.000533536   0.000533553     0.0112061     0.0112064    0.00283672    0.00283682    -0.0107613    -0.0107602
        0.625   0.000536045   0.000536086     0.0112436     0.0112441    0.00284843    0.00284857    -0.0108308     -0.010829
         0.63   0.000538455   0.000538507     0.0112785     0.0112791    0.00285948    0.00285961    -0.0109035    -0.0109015
        0.635   0.000540868   0.000540931     0.0113141     0.0113147     0.0028709    0.00287112    -0.0109768    -0.0109745
         0.64   0.000543191   0.000543226     0.0113492     0.0113496    0.00288214    0.00288227    -0.0110517    -0.0110501
        0.645   0.000545436   0.000545461     0.0113836     0.0113839    0.00289305    0.00289318    -0.0111287    -0.0111273
         0.65   0.000547696   0.000547723     0.0114187      0.011419    0.00290412    0.00290426    -0.0112062    -0.0112048
        0.655   0.000550104   0.000550131     0.0114559     0.0114563     0.0029159    0.00291603     -0.011283    -0.0112816
         0.66    0.00055213   0.000552154     0.0114878     0.0114881    0.00292587      0.002926    -0.0113652    -0.0113639
        0.665   0.000554401   0.000554423     0.0115234     0.0115237    0.00293705    0.00293717    -0.0114456    -0.0114444
         0.67   0.000556616   0.000556636     0.0115584     0.0115587    0.00294801    0.00294813     -0.011528    -0.0115268
        0.675   0.000558947   0.000558974     0.0115956      0.011596     0.0029596    0.00295976    -0.0116099    -0.0116086
         0.68   0.000561452   0.000561476     0.0116361     0.0116364     0.0029722    0.00297229    -0.0116909    -0.0116896
        0.685   0.000563256   0.000563283     0.0116686      0.011669    0.00298179    0.00298193    -0.0117794     -0.011778
         0.69   0.000565231   0.000565252     0.0116974     0.0116977    0.00299145    0.00299158    -0.0118708    -0.0118694
        0.695   0.000567688   0.000567717     0.0117337     0.0117341     0.0030037     0.0030039    -0.0119583    -0.0119568
          0.7   0.000569343   0.000569367     0.0117667     0.0117671    0.00301421    0.00301449    -0.0120491    -0.0120476
        0.705   0.000570716   0.000570757      0.011799     0.0117994    0.00302389    0.00302392    -0.0121418    -0.0121403
         0.71   0.000574811   0.000574854     0.0118354     0.0118358    0.00303428    0.00303437    -0.0122332    -0.0122315
        0.715   0.000577443    0.00057748     0.0118752     0.0118756    0.00304665     0.0030468    -0.0123233    -0.0123217
         0.72   0.000579155   0.000579174     0.0119026     0.0119029    0.00305559    0.00305555    -0.0124232    -0.0124217
        0.725   0.000581389   0.000581431     0.0119384     0.0119388    0.00306718    0.00306742    -0.0125189    -0.0125172
         0.73   0.000583663   0.000583699     0.0119752     0.0119756    0.00307938    0.00307961    -0.0126143    -0.0126127
        0.735   0.000585925   0.000585959     0.0120123     0.0120127    0.00309184    0.00309208    -0.0127106    -0.0127092
         0.74   0.000588196   0.000588225       0.01205     0.0120503    0.00310478    0.00310506    -0.0128092    -0.0128079
        0.745   0.000589705   0.000589741     0.0120769     0.0120773    0.00311481    0.00311508    -0.0129166     -0.012915
         0.75   0.000591924   0.000591993     0.0121134     0.0121141    0.00312877    0.00312921    -0.0130177    -0.0130153
        0.755    0.00059419    0.00059427      0.012151     0.0121517    0.00314598    0.00314676     -0.013119    -0.0131164
         0.76   0.000596147   0.000596229     0.0121874     0.0121882    0.00316712    0.00316692    -0.0132221    -0.0132194
        0.765   0.000598164   0.000598237     0.0122248     0.0122255    0.00316552    0.00316561    -0.0133257    -0.0133233
         0.77   0.000601432   0.000601463      0.012263     0.0122635    0.00315996    0.00315999      -0.01343    -0.0134283
        0.775   0.000604496   0.000604514     0.0123069     0.0123072    0.00317403    0.00317398    -0.0135306    -0.0135292
         0.78   0.000606276   0.000606296     0.0123376     0.0123379     0.0031826    0.00318264    -0.0136436    -0.0136422
        0.785   0.000608624   0.000608643     0.0123776      0.012378    0.00319392    0.00319409    -0.0137503     -0.013749
         0.79     0.0006117   0.000611665      0.012424     0.0124241    0.00320966    0.00320946    -0.0138544    -0.0138533
        0.795   0.000614119   0.000614128     0.0124603     0.0124605    0.00322208    0.00322203    -0.0139661     -0.013965
          0.8   0.000615602   0.000615603     0.0124858     0.0124859    0.00322938     0.0032294    -0.0140858     -0.014085
        0.805   0.000618061   0.000618096      0.012526     0.0125264    0.00324145    0.00324161    -0.0141975    -0.0141959
         0.81   0.000620829   0.000620878     0.0125709     0.0125715    0.00325503    0.00325525    -0.0143071    -0.0143052
        0.815   0.000622433    0.00062249     0.0125987     0.0125993    0.00326305     0.0032633    -0.0144292    -0.0144271
         0.82   0.000624898   0.000624965     0.0126392     0.0126398    0.00327519    0.00327548    -0.0145441    -0.0145418
        0.825   0.000627593   0.000627629     0.0126829     0.0126834    0.00328846    0.00328864    -0.0146572    -0.0146556
         0.83   0.000630299   0.000630325      0.012727     0.0127274    0.00330183    0.00330199    -0.0147719    -0.0147704
        0.835   0.000631821   0.000631851     0.0127541     0.0127545    0.00330966    0.00330984    -0.0149001    -0.0148986
         0.84   0.000634322   0.000634357     0.0127957     0.0127961    0.00332232    0.00332254     -0.015019    -0.0150175
        0.845   0.000636583   0.000636626     0.0128349     0.0128353    0.00333444    0.00333482    -0.0151416    -0.0151401
         0.85   0.000639073   0.000639078     0.0128764     0.0128767    0.00334752    0.00334729    -0.0152631    -0.0152616
        0.855   0.000641908   0.000641866     0.0129192     0.0129193    0.00335883    0.00335785    -0.0153853    -0.0153839
         0.86   0.000644754     0.0006448     0.0129629     0.0129634    0.00336949    0.00336991    -0.0155085    -0.0155068
        0.865    0.00064774    0.00064778      0.013011     0.0130115    0.00338444    0.00338477     -0.015628    -0.0156263
         0.87   0.000649665   0.000649699     0.0130438     0.0130442    0.00339439    0.00339466    -0.0157603    -0.0157588
        0.875   0.000652293   0.000652329     0.0130869     0.0130873    0.00340771    0.00340796    -0.0158868    -0.0158852
         0.88   0.000654955   0.000654987     0.0131306      0.013131    0.00342121    0.00342143    -0.0160139    -0.0160124
        0.885   0.000657695   0.000657726     0.0131754     0.0131758    0.00343509     0.0034353    -0.0161411    -0.0161395
         0.89   0.000660304   0.000660331     0.0132187      0.013219    0.00344839    0.00344859    -0.0162722    -0.0162707
        0.895    0.00066305   0.000663077     0.0132639     0.0132643     0.0034624    0.00346263    -0.0164025    -0.0164011
          0.9   0.000665856   0.000665865       0.01331     0.0133103     0.0034768    0.00347684    -0.0165341    -0.0165328
        0.905   0.000669539   0.000669526     0.0133689      0.013369    0.00349535    0.00349518    -0.0166584    -0.0166574
         0.91   0.000671788   0.000671815     0.0134066      0.013407    0.00350703    0.00350726    -0.0167962    -0.0167947
        0.915   0.000674217   0.000674277     0.0134477     0.0134483    0.00352007    0.00352043     -0.016935    -0.0169328
         0.92   0.000676009   0.000676075     0.0134793     0.0134799    0.00353046    0.00353087    -0.0170795    -0.0170771
        0.925   0.000678906   0.000678974     0.0135278     0.0135285    0.00354701    0.00354749    -0.0172148    -0.0172125
         0.93   0.000682402   0.000682483     0.0135868     0.0135875    0.00356871    0.00356944    -0.0173449    -0.0173424
        0.935   0.000683711   0.000683767     0.0136157     0.0136163    0.00358568    0.00358567    -0.0174944    -0.0174922
         0.94   0.000687306   0.000687297     0.0136649     0.0136652    0.00359053    0.00359017    -0.0176324    -0.0176307
        0.945    0.00069066   0.000690675     0.0137132     0.0137136    0.00359051    0.00359009    -0.0177739     -0.017772
         0.95   0.000693631   0.000693679     0.0137618     0.0137623    0.00360466    0.00360484    -0.0179166    -0.0179148
        0.955   0.000696766   0.000696824     0.0138132     0.0138138    0.00362072    0.00362099    -0.0180579    -0.0180556
         0.96   0.000700186   0.000700246      0.013869     0.0138696    0.00363835    0.00363867    -0.0181974    -0.0181951
        0.965   0.000702116   0.000702181     0.0139031     0.0139037    0.00364902    0.00364942     -0.018352    -0.0183497
         0.97   0.000705142   0.000705199     0.0139537     0.0139543    0.00366552    0.00366585    -0.0184972    -0.0184949
        0.975   0.000708414   0.000708428     0.0140071     0.0140075    0.00368209    0.00368182    -0.0186417    -0.0186397
         0.98   0.000711381   0.000711412      0.014055     0.0140555    0.00369457    0.00369455    -0.0187926    -0.0187905
        0.985   0.000714269   0.000714296     0.0141031     0.0141034    0.00370854     0.0037088    -0.0189438    -0.0189424
         0.99   0.000717408   0.000717428     0.0141558     0.0141561    0.00372506     0.0037252    -0.0190928    -0.0190914
        0.995   0.000720522   0.000720558     0.0142097     0.0142101    0.00374195    0.00374219    -0.0192427    -0.0192411
            1   0.000724247   0.000724267     0.0142706     0.0142711    0.00376105    0.00376122    -0.0193901    -0.0193883
        1.005   0.000726363   0.000726379     0.0143065     0.0143069    0.00377172     0.0037718    -0.0195545    -0.0195529
         1.01   0.000729229   0.000729232     0.0143593     0.0143597    0.00378759    0.00378754     -0.019709    -0.0197072
        1.015    0.00073257   0.000732593     0.0144135      0.014414    0.00380424     0.0038044    -0.0198641    -0.0198621
         1.02   0.000735758   0.000735774     0.0144673     0.0144678    0.00382086    0.00382102    -0.0200213    -0.0200193
        1.025   0.000738028   0.000738012     0.0145236     0.0145241    0.00383746     0.0038377    -0.0201779     -0.020176
         1.03    0.00073814   0.000738224      0.014581     0.0145814    0.00385547    0.00385562    -0.0203355    -0.0203337
        1.035    0.00074696   0.000747067      0.014634     0.0146345    0.00387287    0.00387303    -0.0204963    -0.0204945
         1.04   0.000752127   0.000752167     0.0146935     0.0146939    0.00389166    0.00389185     -0.020654    -0.0206522
        1.045   0.000755626   0.000755662     0.0147482     0.0147486    0.00390854    0.00390874    -0.0208163    -0.0208144
         1.05   0.000758809   0.000758845     0.0148005     0.0148009    0.00392464    0.00392486    -0.0209815    -0.0209796
        1.055   0.000762452   0.000762483     0.0148601     0.0148605    0.00394322    0.00394343     -0.021143    -0.0211413
         1.06   0.000766449   0.000766485     0.0149253     0.0149258    0.00396375      0.003964    -0.0213043    -0.0213024
        1.065   0.000769549   0.000769582     0.0149777     0.0149782    0.00398035    0.00398063    -0.0214762    -0.0214744
         1.07   0.000771778   0.000771815     0.0150172     0.0150176     0.0039934    0.00399385    -0.0216545    -0.0216528
        1.075   0.000775297   0.000775315     0.0150758     0.0150761    0.00401382    0.00401413    -0.0218228    -0.0218212
         1.08    0.00077894   0.000778931     0.0151356     0.0151358    0.00403592    0.00403609    -0.0219917    -0.0219904
        1.085   0.000782924   0.000782875     0.0151984     0.0151984    0.00405293    0.00405187    -0.0221597    -0.0221589
         1.09   0.000786486   0.000786476     0.0152543     0.0152546     0.0040578    0.00405692    -0.0223351    -0.0223339
        1.095   0.000790351   0.000790399     0.0153166     0.0153172    0.00407263    0.00407293     -0.022507    -0.0225049
          1.1   0.000794924    0.00079501     0.0153901      0.015391    0.00409555    0.00409601    -0.0226733    -0.0226703
        1.105   0.000797417    0.00079751      0.015433     0.0154339    0.00410884    0.00410932    -0.0228601     -0.022857
         1.11    0.00080118   0.000801282     0.0154945     0.0154955    0.00412825    0.00412877    -0.0230365    -0.0230331
        1.115   0.000804974   0.000805092     0.0155567     0.0155578    0.00414786    0.00414844    -0.0232139    -0.0232101
         1.12   0.000808772   0.000808902     0.0156192     0.0156204    0.00416754    0.00416825    -0.0233927    -0.0233886
        1.125   0.000812602   0.000812658     0.0156818     0.0156825    0.00418732    0.00418747    -0.0235726    -0.0235699
         1.13    0.00081641   0.000816446     0.0157445     0.0157451    0.00420665    0.00420669    -0.0237543    -0.0237518
        1.135   0.000820077   0.000820083     0.0158086     0.0158089    0.00422647    0.00422667    -0.0239361    -0.0239344
         1.14   0.000823604   0.000823647     0.0158738     0.0158741    0.00424688    0.00424708    -0.0241187    -0.0241169
        1.145   0.000828886   0.000828922     0.0159415     0.0159419    0.00426821    0.00426844     -0.024301    -0.0242992
         1.15   0.000833251   0.000833288     0.0160115      0.016012    0.00429032    0.00429057    -0.0244827    -0.0244809
        1.155   0.000838005   0.000838048     0.0160882     0.0160887    0.00431457    0.00431488    -0.0246627    -0.0246606
         1.16   0.000840439   0.000840477      0.016131     0.0161313    0.00432804    0.00432844    -0.0248661    -0.0248648
        1.165   0.000844658   0.000844699     0.0162005      0.016201    0.00435098    0.00435136    -0.0250533    -0.0250513
         1.17   0.000849636   0.000849644      0.016281     0.0162814    0.00437566    0.00437531     -0.025237     -0.025235
        1.175   0.000853561   0.000853577     0.0163475     0.0163479    0.00439502    0.00439486    -0.0254299    -0.0254279