/*--------------------------------*- C++ -*----------------------------------*\
  =========                 |
  \\      /  F ield         | OpenFOAM: The Open Source CFD Toolbox
   \\    /   O peration     | Website:  https://openfoam.org
    \\  /    A nd           | Version:  7
     \\/     M anipulation  |
\*---------------------------------------------------------------------------*/
FoamFile
{
    version     2.0;
    format      ascii;
    class       volScalarField;
    location    "5";
    object      p;
}
// * * * * * * * * * * * * * * * * * * * * * * * * * * * * * * * * * * * * * //

dimensions      [0 2 -2 0 0 0 0];

internalField   nonuniform List<scalar> 
23452
(
-0.344126
-0.350087
-0.352121
-0.35252
-0.351533
-0.349236
-0.3458
-0.341389
-0.336116
-0.329869
-0.34495
-0.350769
-0.352714
-0.353033
-0.351974
-0.349612
-0.346116
-0.341659
-0.336342
-0.329958
-0.34659
-0.352127
-0.353894
-0.354055
-0.35285
-0.350359
-0.346744
-0.342191
-0.336789
-0.330129
-0.349031
-0.35415
-0.355652
-0.355575
-0.354154
-0.351467
-0.347671
-0.342973
-0.337445
-0.330355
-0.352252
-0.356821
-0.357973
-0.357581
-0.35587
-0.352921
-0.348884
-0.343988
-0.338294
-0.330565
-0.356225
-0.36012
-0.36084
-0.360056
-0.357983
-0.354706
-0.350363
-0.345215
-0.339317
-0.330665
-0.360922
-0.364024
-0.36423
-0.362979
-0.360474
-0.356802
-0.352088
-0.346623
-0.340485
-0.331052
-0.366307
-0.368506
-0.368121
-0.366329
-0.363322
-0.359188
-0.35404
-0.34821
-0.341691
-0.331357
-0.372347
-0.373539
-0.37249
-0.370086
-0.366509
-0.361848
-0.356199
-0.349939
-0.342995
-0.33151
-0.379006
-0.379095
-0.377312
-0.374228
-0.370015
-0.364764
-0.35855
-0.351793
-0.344376
-0.331503
-0.386252
-0.385147
-0.382561
-0.378736
-0.373825
-0.367925
-0.361083
-0.353763
-0.34581
-0.331289
-0.394051
-0.391665
-0.388218
-0.38359
-0.377925
-0.371322
-0.363793
-0.355845
-0.347287
-0.330855
-0.402373
-0.398626
-0.394258
-0.388775
-0.382306
-0.374952
-0.366687
-0.358047
-0.348807
-0.330159
-0.411186
-0.406001
-0.400662
-0.394275
-0.38696
-0.378818
-0.369776
-0.360391
-0.350379
-0.329184
-0.420459
-0.413766
-0.407407
-0.400079
-0.391885
-0.382927
-0.373084
-0.362913
-0.352038
-0.327963
-0.43016
-0.421892
-0.414475
-0.406173
-0.397078
-0.387293
-0.376643
-0.365674
-0.353848
-0.326618
-0.440252
-0.430349
-0.421843
-0.412544
-0.402537
-0.391928
-0.380493
-0.368745
-0.355852
-0.32525
-0.450695
-0.439106
-0.429486
-0.419179
-0.408261
-0.396849
-0.384692
-0.372218
-0.357945
-0.323667
-0.461441
-0.448127
-0.437378
-0.426059
-0.414243
-0.402075
-0.38933
-0.37629
-0.360339
-0.32284
-0.472438
-0.457371
-0.445486
-0.43316
-0.420467
-0.407609
-0.394475
-0.381285
-0.365213
-0.332449
-0.483626
-0.466793
-0.453774
-0.440448
-0.426893
-0.41339
-0.39999
-0.38701
-0.374497
-0.371698
-0.494942
-0.476342
-0.462197
-0.447882
-0.433471
-0.419304
-0.405551
-0.392506
-0.38085
-0.384756
-0.506316
-0.485962
-0.47071
-0.455418
-0.440149
-0.425276
-0.411006
-0.397511
-0.385189
-0.389274
-0.517675
-0.495594
-0.479259
-0.46301
-0.446882
-0.43126
-0.416339
-0.402161
-0.388833
-0.391534
-0.528941
-0.505171
-0.487787
-0.470604
-0.45362
-0.437212
-0.421523
-0.406478
-0.391949
-0.392181
-0.540029
-0.514619
-0.496227
-0.478138
-0.4603
-0.443066
-0.426502
-0.410412
-0.394481
-0.391614
-0.550847
-0.523854
-0.504503
-0.48554
-0.466851
-0.448748
-0.431205
-0.413912
-0.396418
-0.390174
-0.561291
-0.532786
-0.512527
-0.492725
-0.473185
-0.454169
-0.43555
-0.416917
-0.397747
-0.388037
-0.571248
-0.541309
-0.520202
-0.499597
-0.479205
-0.459229
-0.439444
-0.419359
-0.398433
-0.385286
-0.580592
-0.549311
-0.52742
-0.506047
-0.484802
-0.46382
-0.442784
-0.421155
-0.398426
-0.381945
-0.589185
-0.556668
-0.53406
-0.511957
-0.489855
-0.467822
-0.445462
-0.422217
-0.397662
-0.378
-0.596877
-0.563243
-0.539992
-0.517198
-0.494234
-0.471107
-0.447359
-0.422449
-0.396069
-0.373412
-0.603509
-0.568892
-0.545076
-0.521629
-0.497801
-0.473541
-0.448354
-0.421748
-0.393565
-0.368121
-0.608913
-0.573464
-0.549164
-0.525105
-0.50041
-0.474984
-0.448319
-0.420009
-0.390067
-0.362055
-0.612914
-0.576798
-0.552102
-0.527472
-0.501912
-0.475293
-0.447128
-0.417127
-0.385489
-0.355139
-0.615333
-0.578733
-0.553731
-0.528573
-0.502152
-0.474326
-0.444655
-0.412996
-0.379749
-0.347295
-0.61599
-0.579101
-0.553888
-0.528249
-0.500978
-0.47194
-0.440777
-0.407519
-0.372767
-0.338447
-0.614706
-0.577738
-0.552412
-0.526342
-0.498239
-0.468
-0.435378
-0.400602
-0.364472
-0.328527
-0.611309
-0.57448
-0.549143
-0.522694
-0.493787
-0.462375
-0.428352
-0.392163
-0.354803
-0.317476
-0.60563
-0.569171
-0.543926
-0.517159
-0.487486
-0.454945
-0.419601
-0.382131
-0.343707
-0.305243
-0.597516
-0.561662
-0.536617
-0.509595
-0.479208
-0.445605
-0.409044
-0.370446
-0.331145
-0.291792
-0.586825
-0.551817
-0.527079
-0.499874
-0.46884
-0.434261
-0.396613
-0.357064
-0.31709
-0.277095
-0.573433
-0.539513
-0.515193
-0.487885
-0.456284
-0.420838
-0.382257
-0.341956
-0.301529
-0.261136
-0.557235
-0.524645
-0.500854
-0.473531
-0.441462
-0.40528
-0.365943
-0.325108
-0.28446
-0.243914
-0.538151
-0.507128
-0.48398
-0.456738
-0.424316
-0.387551
-0.347657
-0.306522
-0.2659
-0.22544
-0.516122
-0.4869
-0.464508
-0.437454
-0.404811
-0.367636
-0.327402
-0.286216
-0.24588
-0.20575
-0.491121
-0.463923
-0.442401
-0.41565
-0.382935
-0.345544
-0.305203
-0.264222
-0.224436
-0.184844
-0.463146
-0.438185
-0.417648
-0.391325
-0.358703
-0.321305
-0.281103
-0.240589
-0.201585
-0.162569
-0.432227
-0.409702
-0.390265
-0.364504
-0.332153
-0.294972
-0.255169
-0.215396
-0.177388
-0.138779
-0.398422
-0.378521
-0.360296
-0.335239
-0.30335
-0.266624
-0.227486
-0.188728
-0.152055
-0.114801
-0.361824
-0.344716
-0.327815
-0.303611
-0.272385
-0.236359
-0.198155
-0.160661
-0.125355
-0.0899575
-0.322552
-0.30839
-0.292925
-0.269727
-0.239375
-0.204297
-0.167295
-0.131325
-0.0976564
-0.0641229
-0.28076
-0.269677
-0.255755
-0.233724
-0.204459
-0.170574
-0.135043
-0.100843
-0.0690534
-0.0374849
-0.236628
-0.228736
-0.216463
-0.195762
-0.167783
-0.135364
-0.101554
-0.0693539
-0.0396495
-0.0102082
-0.190356
-0.185761
-0.175233
-0.156008
-0.129559
-0.0988351
-0.0669953
-0.037012
-0.00957825
0.0175417
-0.142151
-0.140987
-0.132272
-0.114687
-0.0899702
-0.0611815
-0.0315501
-0.00398226
0.021018
0.0455734
-0.0923301
-0.0946073
-0.0878123
-0.0720193
-0.0492353
-0.0226102
0.00458779
0.0295711
0.0520074
0.07359
-0.04116
-0.0468879
-0.042103
-0.0282457
-0.00758624
0.0166613
0.041218
0.0634951
0.083243
0.101054
0.0110847
0.00188043
0.00458827
0.0163775
0.034735
0.0564077
0.0781403
0.0976316
0.114423
0.127218
0.0640907
0.0514062
0.0519805
0.0615822
0.0774786
0.0964039
0.115168
0.131779
0.144933
0.151277
0.117531
0.101385
0.0997806
0.107091
0.12039
0.13643
0.152134
0.165723
0.174144
0.174309
0.17107
0.151502
0.147686
0.152619
0.163208
0.17626
0.188832
0.199376
0.204709
0.203135
0.224368
0.201434
0.195389
0.197877
0.205666
0.21565
0.225023
0.232405
0.234896
0.231785
0.277078
0.250855
0.242576
0.242572
0.247499
0.254357
0.260484
0.264628
0.26419
0.259246
0.328857
0.299438
0.288937
0.286417
0.288444
0.292145
0.29501
0.2959
0.292523
0.285506
0.379362
0.346858
0.334164
0.329126
0.328244
0.328789
0.328403
0.326063
0.319785
0.310552
0.428258
0.392795
0.377953
0.37042
0.366651
0.364072
0.360479
0.354964
0.345845
0.334334
0.475218
0.436937
0.42001
0.410029
0.403426
0.397786
0.391063
0.382459
0.370586
0.356786
0.519928
0.478984
0.460051
0.447695
0.438339
0.429734
0.419988
0.408415
0.393899
0.377843
0.562084
0.518647
0.497805
0.48317
0.471172
0.45973
0.447099
0.432704
0.415683
0.397441
0.601402
0.555653
0.533015
0.516221
0.501722
0.487599
0.47225
0.455205
0.435838
0.415513
0.637613
0.589746
0.56544
0.546632
0.529798
0.513177
0.495304
0.475807
0.454274
0.431996
0.670472
0.620691
0.59486
0.574202
0.555225
0.536317
0.516137
0.494404
0.470903
0.446828
0.699752
0.648271
0.621072
0.59875
0.577844
0.556881
0.534634
0.510904
0.485645
0.459951
0.725252
0.672294
0.643898
0.620113
0.597513
0.57475
0.550694
0.52522
0.49843
0.471312
0.746796
0.692591
0.663179
0.638149
0.61411
0.589817
0.564228
0.537279
0.509193
0.480861
0.764235
0.709021
0.678782
0.65274
0.627529
0.601994
0.57516
0.547016
0.517881
0.488555
0.777446
0.721466
0.690599
0.663786
0.637686
0.611208
0.58343
0.55438
0.524449
0.494357
0.786336
0.729839
0.698548
0.671215
0.644515
0.617402
0.58899
0.559332
0.528865
0.498257
0.790842
0.734079
0.702571
0.674975
0.647971
0.620538
0.591807
0.561844
0.53112
0.500288
0.790931
0.734155
0.702641
0.67504
0.648032
0.620595
0.591862
0.561897
0.53118
0.50038
0.786601
0.730064
0.698755
0.671408
0.644695
0.617571
0.589151
0.559485
0.529024
0.498455
0.77788
0.721836
0.690939
0.664103
0.637981
0.611483
0.583687
0.554619
0.524675
0.494582
0.764826
0.709525
0.679246
0.65317
0.627929
0.602365
0.575502
0.547327
0.51816
0.488796
0.74753
0.693217
0.663755
0.638684
0.614604
0.590271
0.56464
0.537647
0.509514
0.481119
0.726109
0.673027
0.644573
0.620738
0.598089
0.575274
0.551164
0.525633
0.49878
0.471582
0.700713
0.649095
0.621831
0.599451
0.578487
0.557463
0.53515
0.511349
0.486015
0.460227
0.671514
0.621589
0.595686
0.574965
0.555921
0.536943
0.516686
0.494872
0.471284
0.447103
0.638716
0.590699
0.566318
0.547441
0.530534
0.513835
0.495876
0.476287
0.45466
0.432265
0.602542
0.556643
0.533927
0.517062
0.502485
0.488277
0.472835
0.455691
0.436223
0.415771
0.563242
0.519656
0.498737
0.484028
0.47195
0.460418
0.447688
0.433188
0.416062
0.397684
0.521083
0.479996
0.460987
0.448558
0.43912
0.430423
0.420574
0.408893
0.394269
0.378069
0.476354
0.437937
0.420937
0.410884
0.4042
0.398467
0.39164
0.382926
0.370944
0.356992
0.429358
0.393768
0.378858
0.371256
0.367409
0.364738
0.361042
0.355416
0.346188
0.334518
0.380413
0.347794
0.335036
0.329935
0.328978
0.329435
0.328948
0.326499
0.320114
0.310715
0.329849
0.300326
0.289768
0.28719
0.289147
0.292766
0.295534
0.296319
0.292839
0.285653
0.278002
0.251688
0.243358
0.243303
0.248167
0.254949
0.260987
0.265031
0.264496
0.259387
0.225217
0.202205
0.196116
0.19856
0.206295
0.216212
0.225503
0.232793
0.235198
0.231947
0.171841
0.152207
0.148355
0.153252
0.163795
0.176789
0.189289
0.19975
0.205018
0.203381
0.11822
0.102021
0.100388
0.107671
0.120933
0.136925
0.15257
0.166089
0.174471
0.174683
0.0646982
0.051972
0.0525255
0.0621071
0.0779763
0.0968643
0.115583
0.13214
0.145269
0.151784
0.0116109
0.00237612
0.00507013
0.0168471
0.0351865
0.0568323
0.0785311
0.0979828
0.11475
0.127642
-0.0407131
-0.0464612
-0.0416836
-0.0278312
-0.00718118
0.017049
0.0415817
0.0638299
0.0835533
0.101396
-0.0919596
-0.0942475
-0.0874538
-0.0716589
-0.0488764
-0.0222597
0.00492295
0.0298858
0.0523017
0.0738908
-0.141853
-0.140691
-0.131972
-0.114379
-0.0896563
-0.060868
-0.0312437
-0.0036888
0.0212969
0.0458511
-0.190126
-0.185526
-0.174989
-0.155751
-0.129289
-0.0985577
-0.0667175
-0.0367399
-0.00931503
0.0178017
-0.236461
-0.228558
-0.216272
-0.195552
-0.167555
-0.135121
-0.101304
-0.0691029
-0.039402
-0.00996292
-0.280652
-0.269551
-0.255611
-0.233558
-0.20427
-0.170365
-0.13482
-0.100613
-0.0688212
-0.0372523
-0.322497
-0.308311
-0.292826
-0.269603
-0.239223
-0.20412
-0.167098
-0.131115
-0.0974394
-0.063902
-0.361816
-0.34468
-0.327757
-0.303524
-0.272268
-0.236212
-0.197983
-0.16047
-0.125153
-0.0897481
-0.398456
-0.378524
-0.360274
-0.335187
-0.303264
-0.266505
-0.227338
-0.188556
-0.151868
-0.114605
-0.432297
-0.409739
-0.390275
-0.364482
-0.332095
-0.294879
-0.255042
-0.215242
-0.177214
-0.138605
-0.463248
-0.43825
-0.417686
-0.39133
-0.358671
-0.321235
-0.280997
-0.240452
-0.201422
-0.162395
-0.491249
-0.464013
-0.442463
-0.415678
-0.382926
-0.345495
-0.305116
-0.264101
-0.224287
-0.184676
-0.516271
-0.48701
-0.46459
-0.437502
-0.404821
-0.367607
-0.327333
-0.286111
-0.245745
-0.205593
-0.538316
-0.507255
-0.484078
-0.456803
-0.424344
-0.387538
-0.347604
-0.306432
-0.265778
-0.225295
-0.557414
-0.524785
-0.500966
-0.47361
-0.441504
-0.405282
-0.365904
-0.325032
-0.284351
-0.243779
-0.57362
-0.539662
-0.515314
-0.487975
-0.456338
-0.420852
-0.382231
-0.341893
-0.301432
-0.261012
-0.587019
-0.551973
-0.527208
-0.499972
-0.468903
-0.434286
-0.396599
-0.357013
-0.317004
-0.276981
-0.597713
-0.561822
-0.53675
-0.509699
-0.479279
-0.445639
-0.40904
-0.370405
-0.33107
-0.291688
-0.605827
-0.569332
-0.544062
-0.517267
-0.487562
-0.454987
-0.419606
-0.382099
-0.343641
-0.305149
-0.611504
-0.574641
-0.549279
-0.522804
-0.493867
-0.462422
-0.428363
-0.39214
-0.354746
-0.31739
-0.614898
-0.577896
-0.552547
-0.526452
-0.49832
-0.468051
-0.435396
-0.400586
-0.364424
-0.32845
-0.616176
-0.579256
-0.554021
-0.528358
-0.501061
-0.471994
-0.4408
-0.407509
-0.372726
-0.338377
-0.615512
-0.578883
-0.55386
-0.52868
-0.502234
-0.474381
-0.444681
-0.412992
-0.379714
-0.347233
-0.613085
-0.576943
-0.552227
-0.527576
-0.501992
-0.475348
-0.447157
-0.417126
-0.38546
-0.355084
-0.609076
-0.573602
-0.549283
-0.525205
-0.500488
-0.475039
-0.448349
-0.420012
-0.390043
-0.362006
-0.603663
-0.569023
-0.545189
-0.521724
-0.497876
-0.473595
-0.448384
-0.421754
-0.393546
-0.368077
-0.597021
-0.563366
-0.540099
-0.517288
-0.494306
-0.471159
-0.44739
-0.422457
-0.396053
-0.373374
-0.589319
-0.556783
-0.53416
-0.512042
-0.489923
-0.467872
-0.445492
-0.422227
-0.39765
-0.377968
-0.580717
-0.549419
-0.527514
-0.506127
-0.484866
-0.463868
-0.442814
-0.421165
-0.398416
-0.381917
-0.571364
-0.541409
-0.52029
-0.499671
-0.479265
-0.459274
-0.439472
-0.41937
-0.398425
-0.385263
-0.561398
-0.532878
-0.512608
-0.492794
-0.47324
-0.45421
-0.435577
-0.416928
-0.397741
-0.388018
-0.550944
-0.523939
-0.504577
-0.485603
-0.466902
-0.448786
-0.43123
-0.413923
-0.396413
-0.390159
-0.540118
-0.514696
-0.496296
-0.478196
-0.460348
-0.443102
-0.426525
-0.410422
-0.394477
-0.391603
-0.529021
-0.505242
-0.48785
-0.470657
-0.453663
-0.437244
-0.421544
-0.406487
-0.391946
-0.392173
-0.517747
-0.495659
-0.479316
-0.463058
-0.446921
-0.43129
-0.416358
-0.40217
-0.38883
-0.391528
-0.506381
-0.48602
-0.470761
-0.455462
-0.440184
-0.425302
-0.411024
-0.397519
-0.385186
-0.38927
-0.495
-0.476394
-0.462244
-0.447922
-0.433503
-0.419328
-0.405566
-0.392513
-0.380847
-0.384752
-0.483678
-0.46684
-0.453816
-0.440484
-0.426923
-0.413412
-0.400004
-0.387016
-0.374494
-0.371692
-0.472484
-0.457413
-0.445524
-0.433192
-0.420493
-0.407629
-0.394488
-0.38129
-0.365209
-0.332432
-0.461482
-0.448165
-0.437411
-0.426088
-0.414267
-0.402093
-0.38934
-0.376294
-0.360335
-0.32282
-0.450731
-0.43914
-0.429516
-0.419205
-0.408282
-0.396864
-0.384701
-0.372221
-0.357941
-0.323649
-0.440284
-0.430378
-0.421869
-0.412567
-0.402556
-0.391942
-0.380501
-0.368747
-0.355849
-0.325233
-0.430187
-0.421917
-0.414499
-0.406193
-0.397094
-0.387305
-0.37665
-0.365676
-0.353845
-0.326603
-0.420483
-0.413788
-0.407428
-0.400097
-0.3919
-0.382938
-0.37309
-0.362915
-0.352035
-0.327951
-0.411206
-0.406021
-0.40068
-0.394291
-0.386973
-0.378827
-0.369782
-0.360392
-0.350377
-0.329172
-0.40239
-0.398643
-0.394274
-0.388788
-0.382317
-0.37496
-0.366692
-0.358048
-0.348804
-0.330149
-0.394066
-0.39168
-0.388231
-0.383602
-0.377935
-0.371329
-0.363798
-0.355846
-0.347285
-0.330847
-0.386264
-0.385159
-0.382573
-0.378746
-0.373833
-0.367931
-0.361086
-0.353764
-0.345808
-0.331282
-0.379016
-0.379106
-0.377322
-0.374237
-0.370022
-0.36477
-0.358553
-0.351794
-0.344374
-0.331497
-0.372355
-0.373548
-0.372498
-0.370094
-0.366515
-0.361853
-0.356202
-0.34994
-0.342993
-0.331505
-0.366314
-0.368514
-0.368129
-0.366336
-0.363328
-0.359192
-0.354042
-0.348211
-0.341689
-0.331353
-0.360927
-0.36403
-0.364236
-0.362984
-0.360478
-0.356805
-0.35209
-0.346624
-0.340484
-0.331048
-0.35623
-0.360125
-0.360845
-0.36006
-0.357987
-0.354709
-0.350364
-0.345216
-0.339316
-0.330662
-0.352255
-0.356825
-0.357977
-0.357585
-0.355873
-0.352924
-0.348885
-0.343989
-0.338293
-0.330562
-0.349033
-0.354153
-0.355655
-0.355578
-0.354156
-0.351468
-0.347672
-0.342973
-0.337445
-0.330354
-0.346591
-0.352129
-0.353896
-0.354057
-0.352852
-0.35036
-0.346745
-0.342191
-0.336788
-0.330128
-0.344951
-0.35077
-0.352715
-0.353034
-0.351975
-0.349613
-0.346117
-0.341659
-0.336342
-0.329958
-0.344127
-0.350088
-0.352122
-0.35252
-0.351533
-0.349237
-0.3458
-0.341389
-0.336116
-0.329868
-0.324717
-0.318983
-0.312491
-0.305347
-0.297437
-0.288795
-0.279442
-0.269393
-0.258677
-0.247328
-0.235386
-0.222897
-0.209914
-0.196496
-0.18271
-0.168631
-0.154345
-0.139944
-0.125532
-0.111222
-0.097132
-0.0833875
-0.0701153
-0.0574416
-0.045489
-0.0343714
-0.0241942
-0.0150418
-0.00699561
-8.49521e-05
0.0056148
0.0101932
0.0134811
0.01589
0.0167951
0.0175771
0.016003
0.016381
0.0114772
0.0141456
0.00270561
0.0139993
-0.325209
-0.319383
-0.31285
-0.305682
-0.297756
-0.289102
-0.27974
-0.269686
-0.258967
-0.247616
-0.235674
-0.223185
-0.210202
-0.196784
-0.182997
-0.168917
-0.154627
-0.140222
-0.125805
-0.111488
-0.0973896
-0.0836352
-0.0703517
-0.0576656
-0.0456997
-0.034568
-0.0243761
-0.0152086
-0.00714707
-0.000221111
0.00549378
0.0100868
0.0133891
0.0158111
0.0167292
0.0175218
0.0159598
0.0163436
0.0114537
0.0141178
0.00270332
0.0139654
-0.326181
-0.32017
-0.313553
-0.306345
-0.298385
-0.289707
-0.280329
-0.270263
-0.259538
-0.248184
-0.236241
-0.223753
-0.210771
-0.197353
-0.183566
-0.169483
-0.155188
-0.140775
-0.126347
-0.112016
-0.0979008
-0.0841269
-0.0708213
-0.0581109
-0.0461187
-0.0349591
-0.024738
-0.0155406
-0.00744869
-0.000492335
0.00525264
0.00987492
0.0132056
0.0156539
0.0165979
0.0174115
0.0158735
0.0162689
0.011407
0.0140623
0.00269876
0.0138978
-0.327619
-0.321329
-0.314587
-0.30732
-0.299309
-0.290594
-0.281191
-0.27111
-0.260375
-0.249018
-0.237075
-0.224588
-0.211609
-0.198192
-0.184404
-0.170318
-0.156016
-0.141592
-0.127148
-0.112797
-0.0986582
-0.0848559
-0.071518
-0.0587717
-0.0467408
-0.03554
-0.0252759
-0.0160342
-0.00789732
-0.000895922
0.00489367
0.00955934
0.0129322
0.0154196
0.0164019
0.0172468
0.0157447
0.0161573
0.0113372
0.0139794
0.00269202
0.013797
-0.329588
-0.322813
-0.31592
-0.308582
-0.300503
-0.29174
-0.282305
-0.272203
-0.261459
-0.250098
-0.238156
-0.225673
-0.212698
-0.199285
-0.185497
-0.171407
-0.157097
-0.14266
-0.128197
-0.113821
-0.099651
-0.0858121
-0.0724324
-0.0596398
-0.0475584
-0.036304
-0.0259837
-0.0166841
-0.00848834
-0.00142791
0.00442022
0.00914287
0.0125712
0.01511
0.0161429
0.017029
0.0155742
0.0160095
0.0112448
0.0138694
0.0026832
0.0136636
-0.332259
-0.324453
-0.317491
-0.310097
-0.301937
-0.293115
-0.283641
-0.273518
-0.262762
-0.251399
-0.23946
-0.226985
-0.214017
-0.200609
-0.186824
-0.172732
-0.158414
-0.143962
-0.129477
-0.115072
-0.100865
-0.0869827
-0.0735529
-0.0607043
-0.0485619
-0.0372423
-0.0268537
-0.0174834
-0.00921581
-0.00208317
0.00383666
0.00862913
0.0121255
0.0147275
0.0158227
0.0167594
0.0153632
0.0158262
0.0111304
0.0137329
0.00267244
0.0134984
-0.334528
-0.326743
-0.319342
-0.311833
-0.303581
-0.294686
-0.285168
-0.275019
-0.264253
-0.252891
-0.24096
-0.228495
-0.215539
-0.202142
-0.188362
-0.17427
-0.159945
-0.145478
-0.13097
-0.116532
-0.102284
-0.0883524
-0.0748654
-0.0619525
-0.0497397
-0.0383447
-0.0278767
-0.0184241
-0.0100726
-0.00285557
0.00314818
0.00802249
0.0115988
0.0142749
0.0154435
0.0164398
0.0151129
0.0156084
0.0109946
0.0135704
0.00265994
0.0133025
-0.337348
-0.329458
-0.321402
-0.313754
-0.305394
-0.296415
-0.286848
-0.276673
-0.265899
-0.254541
-0.242623
-0.230176
-0.217237
-0.203854
-0.190085
-0.175996
-0.161667
-0.147186
-0.132654
-0.118182
-0.10389
-0.0899041
-0.0763541
-0.0633699
-0.0510787
-0.0395992
-0.029042
-0.0194968
-0.0110506
-0.0037381
0.00236077
0.00732794
0.0109952
0.0137555
0.0150081
0.0160721
0.0148249
0.0153573
0.0108382
0.0133828
0.0026459
0.013077
-0.340518
-0.332045
-0.323594
-0.315822
-0.307336
-0.298262
-0.288642
-0.278443
-0.267664
-0.256317
-0.244418
-0.231994
-0.219079
-0.205718
-0.191965
-0.177884
-0.163553
-0.14906
-0.134506
-0.12
-0.105662
-0.0916192
-0.0780019
-0.0649409
-0.0525646
-0.0409931
-0.0303382
-0.0206914
-0.0121408
-0.00472303
0.00148102
0.00655101
0.0103191
0.0131731
0.0145192
0.0156587
0.0145009
0.015074
0.0106622
0.0131709
0.00263056
0.0128233
-0.343978
-0.334873
-0.325923
-0.317992
-0.309362
-0.300186
-0.290512
-0.28029
-0.269513
-0.258183
-0.246311
-0.233919
-0.221036
-0.207703
-0.193972
-0.179905
-0.165578
-0.151077
-0.136502
-0.121963
-0.107579
-0.093478
-0.0797906
-0.0666489
-0.0541824
-0.0425126
-0.0317532
-0.0219969
-0.0133338
-0.00580211
0.000515982
0.00569764
0.00957566
0.0125316
0.01398
0.0152019
0.0141428
0.0147601
0.0104675
0.0129355
0.00261418
0.0125428
-0.347426
-0.337838
-0.328331
-0.320217
-0.311431
-0.302148
-0.292419
-0.282179
-0.271409
-0.260105
-0.248269
-0.235918
-0.223076
-0.20978
-0.196078
-0.182032
-0.167714
-0.15321
-0.138618
-0.124049
-0.10962
-0.0954606
-0.0817019
-0.0684769
-0.0559165
-0.0441438
-0.0332742
-0.0234022
-0.0146197
-0.00696673
-0.00052692
0.00477409
0.00876996
0.0118353
0.0133941
0.0147043
0.0137525
0.0144169
0.0102551
0.0126778
0.00259705
0.012237
-0.351154
-0.340913
-0.330767
-0.322453
-0.3135
-0.304106
-0.294326
-0.284073
-0.27332
-0.262051
-0.250261
-0.23796
-0.225168
-0.211918
-0.198255
-0.184237
-0.169936
-0.155434
-0.140831
-0.126234
-0.111764
-0.0975469
-0.0837169
-0.0704076
-0.0577512
-0.0458724
-0.0348884
-0.0248959
-0.0159883
-0.00820805
-0.00164009
0.0037868
0.00790739
0.0110884
0.0127649
0.0141688
0.0133323
0.0140462
0.0100263
0.0123988
0.00257949
0.0119076
-0.354919
-0.34402
-0.333187
-0.324653
-0.315527
-0.306024
-0.296198
-0.285942
-0.275214
-0.263991
-0.252258
-0.240018
-0.227286
-0.214091
-0.200476
-0.186495
-0.172217
-0.157725
-0.143116
-0.128497
-0.113988
-0.0997175
-0.0858178
-0.0724244
-0.0596712
-0.0476844
-0.0365833
-0.0264665
-0.0174296
-0.00951736
-0.00281597
0.00274219
0.00699336
0.0102955
0.0120959
0.0135981
0.0128842
0.0136496
0.00978206
0.0120996
0.00256178
0.0115562
-0.358646
-0.347097
-0.335545
-0.326772
-0.317469
-0.307866
-0.298004
-0.287755
-0.277065
-0.265897
-0.254232
-0.242064
-0.229403
-0.216274
-0.202715
-0.18878
-0.174535
-0.160061
-0.145452
-0.130818
-0.116276
-0.101954
-0.0879874
-0.0745116
-0.061662
-0.0495667
-0.0383469
-0.0281035
-0.0189342
-0.0108862
-0.0040472
0.00164659
0.0060332
0.00946095
0.0113908
0.012995
0.0124105
0.0132287
0.00952365
0.0117814
0.0025443
0.0111843
-0.362231
-0.350051
-0.337784
-0.328756
-0.319283
-0.309598
-0.299716
-0.289487
-0.278846
-0.267748
-0.256161
-0.244075
-0.231496
-0.218443
-0.204951
-0.191071
-0.176868
-0.162419
-0.14782
-0.133176
-0.118606
-0.104239
-0.090209
-0.0766534
-0.0637089
-0.0515056
-0.0401667
-0.0297954
-0.0204916
-0.0123054
-0.00532572
0.000506962
0.0050329
0.00858971
0.0106537
0.0123628
0.0119139
0.0127856
0.00925255
0.0114456
0.00252761
0.0107937
-0.365483
-0.352709
-0.339825
-0.330543
-0.320922
-0.311189
-0.301309
-0.291116
-0.28054
-0.269522
-0.258025
-0.246032
-0.233543
-0.220576
-0.207161
-0.193345
-0.179192
-0.164777
-0.150194
-0.135548
-0.120957
-0.10655
-0.0924613
-0.0788295
-0.0657929
-0.0534834
-0.0420263
-0.0315273
-0.0220886
-0.0137632
-0.0066412
-0.000667806
0.004
0.00768804
0.00988977
0.0117055
0.0113974
0.0123226
0.00897047
0.0110934
0.00251234
0.0103859
-0.36803
-0.35484
-0.341614
-0.3321
-0.322361
-0.312621
-0.302769
-0.29263
-0.282131
-0.271203
-0.259805
-0.247913
-0.235524
-0.22265
-0.209319
-0.195577
-0.181482
-0.16711
-0.152551
-0.137911
-0.123306
-0.108866
-0.0947243
-0.0810217
-0.0678974
-0.0554853
-0.0439128
-0.0332882
-0.0237158
-0.0152517
-0.0079873
-0.00187272
0.00293822
0.00675866
0.00910065
0.0110244
0.0108615
0.0118404
0.00867684
0.0107264
0.00249701
0.00996317
-0.369602
-0.35642
-0.343212
-0.333436
-0.323592
-0.313883
-0.304085
-0.294018
-0.283608
-0.272782
-0.261493
-0.249713
-0.237435
-0.224666
-0.211433
-0.197776
-0.183752
-0.169435
-0.154913
-0.14029
-0.125682
-0.111217
-0.0970302
-0.0832628
-0.0700553
-0.0575435
-0.0458572
-0.0351071
-0.0254
-0.0167954
-0.00938612
-0.00312733
0.00183018
0.00578677
0.00827318
0.0103093
0.0102966
0.0113338
0.00836506
0.0103449
0.00247624
0.00952791
-0.369976
-0.356763
-0.344239
-0.334332
-0.324475
-0.314888
-0.305207
-0.295253
-0.284962
-0.274265
-0.26311
-0.251467
-0.239323
-0.226685
-0.213572
-0.200023
-0.186091
-0.171848
-0.157378
-0.142785
-0.128184
-0.113701
-0.0994739
-0.0856426
-0.0723499
-0.0597338
-0.0479267
-0.0370426
-0.0271911
-0.0184356
-0.0108704
-0.00445683
0.000657908
0.00475984
0.00740051
0.00955584
0.00970302
0.0108017
0.00803955
0.00994645
0.00245812
0.00907703
-0.362773
-0.351664
-0.343398
-0.334254
-0.324746
-0.315501
-0.306064
-0.296294
-0.286164
-0.27562
-0.264613
-0.253114
-0.241109
-0.228601
-0.215607
-0.202162
-0.188318
-0.174143
-0.159722
-0.145155
-0.130556
-0.116053
-0.101782
-0.0878862
-0.0745086
-0.0617899
-0.0498648
-0.0388505
-0.0288587
-0.0199576
-0.012241
-0.00567988
-0.000411237
0.00382469
0.00661938
0.00887219
0.00918757
0.0103046
0.00778064
0.00953321
0.00251304
0.00859232
-0.327768
-0.337682
-0.341655
-0.33459
-0.325762
-0.317008
-0.307889
-0.298313
-0.28831
-0.277856
-0.266916
-0.255466
-0.243496
-0.23101
-0.218027
-0.204582
-0.190725
-0.176524
-0.162064
-0.147444
-0.132781
-0.118201
-0.103842
-0.0898474
-0.0763632
-0.0635309
-0.0514859
-0.0403479
-0.0302275
-0.0211984
-0.0133471
-0.00666247
-0.0012539
0.00308239
0.00602801
0.00831831
0.0088264
0.00984127
0.00765552
0.00901421
0.00274779
0.00791241
-0.320975
-0.326608
-0.332535
-0.326772
-0.318819
-0.31092
-0.302535
-0.293544
-0.284037
-0.274034
-0.263518
-0.252478
-0.240909
-0.228819
-0.216228
-0.203169
-0.189691
-0.175859
-0.161753
-0.147472
-0.133124
-0.118836
-0.104739
-0.0909756
-0.0776872
-0.0650139
-0.0530896
-0.0420341
-0.031957
-0.022936
-0.0150541
-0.0083135
-0.00280675
0.00162796
0.00473527
0.00712574
0.00787274
0.00891152
0.0071109
0.00826151
0.00274177
0.00713023
-0.315675
-0.31775
-0.322782
-0.317831
-0.310599
-0.303369
-0.295625
-0.287203
-0.278206
-0.26868
-0.258622
-0.248029
-0.236905
-0.22526
-0.213114
-0.200501
-0.187468
-0.174077
-0.160404
-0.146543
-0.1326
-0.118693
-0.104951
-0.0915105
-0.0785091
-0.0660832
-0.0543639
-0.0434695
-0.0335079
-0.0245592
-0.0167035
-0.00995323
-0.00438912
0.000118785
0.00336101
0.00585225
0.00681755
0.00791568
0.00646556
0.00749662
0.00262886
0.00639005
-0.309705
-0.309162
-0.312929
-0.308603
-0.302022
-0.295352
-0.288187
-0.280328
-0.27186
-0.262837
-0.253267
-0.243151
-0.232498
-0.221321
-0.209643
-0.197497
-0.184928
-0.171995
-0.158773
-0.14535
-0.131827
-0.11832
-0.104951
-0.0918517
-0.0791558
-0.0669961
-0.0555002
-0.044785
-0.0349566
-0.0260966
-0.018283
-0.011537
-0.00592929
-0.00135833
0.00200642
0.00459326
0.00576403
0.00692387
0.00580793
0.00673327
0.00249221
0.00566838
-0.302137
-0.300012
-0.30237
-0.298446
-0.292474
-0.286339
-0.279743
-0.272469
-0.264572
-0.256104
-0.247075
-0.237492
-0.227365
-0.21671
-0.20555
-0.193919
-0.18186
-0.169431
-0.156702
-0.143759
-0.130697
-0.117628
-0.104669
-0.0919465
-0.0795899
-0.067728
-0.0564854
-0.0459767
-0.0363064
-0.0275574
-0.0198059
-0.0130807
-0.00744495
-0.00282166
0.000653507
0.00333224
0.0046974
0.00592446
0.00512865
0.00596662
0.00232928
0.00496374
-0.292529
-0.289752
-0.290782
-0.287153
-0.281794
-0.276208
-0.270185
-0.263518
-0.256229
-0.248361
-0.239924
-0.230926
-0.221379
-0.211299
-0.200711
-0.189646
-0.178149
-0.166274
-0.154088
-0.141673
-0.129121
-0.116536
-0.104033
-0.091731
-0.079756
-0.068232
-0.0572801
-0.0470127
-0.0375325
-0.0289231
-0.0212595
-0.0145768
-0.00893257
-0.00427098
-0.00070015
0.00206553
0.0036125
0.00491401
0.0044222
0.00519774
0.0021338
0.0042811
-0.28086
-0.278116
-0.278069
-0.274731
-0.27002
-0.265019
-0.259586
-0.253545
-0.246894
-0.239663
-0.231859
-0.223491
-0.214569
-0.205111
-0.19514
-0.184689
-0.1738
-0.162524
-0.150927
-0.139086
-0.127087
-0.115032
-0.103027
-0.0911882
-0.0796355
-0.0684885
-0.0578645
-0.0478734
-0.0386156
-0.0301751
-0.0226262
-0.0160091
-0.0103775
-0.00569344
-0.00204314
0.000802599
0.00251752
0.00389894
0.00369361
0.00443121
0.00190742
0.00362489
-0.267278
-0.265061
-0.264265
-0.261267
-0.257241
-0.252869
-0.24805
-0.242652
-0.236662
-0.230095
-0.222957
-0.215252
-0.206993
-0.198195
-0.188881
-0.179084
-0.168842
-0.158207
-0.147239
-0.136011
-0.124606
-0.113119
-0.101652
-0.0903153
-0.0792226
-0.0684893
-0.0582284
-0.0485467
-0.0395426
-0.0312998
-0.023892
-0.0173638
-0.0117663
-0.00707648
-0.00336364
-0.000446328
0.00142185
0.00288655
0.00294946
0.00367155
0.0016538
0.0029987
-0.252123
-0.25073
-0.249523
-0.24693
-0.243615
-0.239903
-0.23572
-0.230977
-0.225661
-0.219776
-0.213323
-0.206305
-0.198734
-0.190624
-0.181998
-0.172885
-0.163323
-0.15336
-0.143054
-0.132473
-0.121697
-0.110812
-0.0999176
-0.0891166
-0.0785179
-0.0682314
-0.0583658
-0.0490246
-0.0403038
-0.0322866
-0.0250456
-0.0186295
-0.0130875
-0.00840934
-0.00465134
-0.00167227
0.000333915
0.00188337
0.00219593
0.00292295
0.00137659
0.00240569
-0.235859
-0.235409
-0.234089
-0.231961
-0.229358
-0.226322
-0.222783
-0.218699
-0.214058
-0.208858
-0.203096
-0.196776
-0.189905
-0.182499
-0.174577
-0.166169
-0.157308
-0.148041
-0.138421
-0.128513
-0.118391
-0.108136
-0.0978418
-0.0876052
-0.0775291
-0.0677182
-0.0582765
-0.0493039
-0.0408936
-0.0331276
-0.0260781
-0.0197964
-0.014331
-0.00968224
-0.00589666
-0.00286672
-0.000738123
0.000895759
0.0014392
0.00218944
0.00107966
0.00184874
-0.218996
-0.219466
-0.218267
-0.216641
-0.214725
-0.212354
-0.209455
-0.206019
-0.20204
-0.197515
-0.192437
-0.18681
-0.180639
-0.173939
-0.166728
-0.159031
-0.150882
-0.142323
-0.133403
-0.124184
-0.114733
-0.105127
-0.0954532
-0.0858024
-0.0762714
-0.0669595
-0.0579656
-0.0493855
-0.0413095
-0.0338181
-0.0269828
-0.0208568
-0.0154882
-0.0108863
-0.00709056
-0.00402144
-0.00178618
-6.98993e-05
0.000685673
0.00147504
0.000767257
0.00133027
-0.202021
-0.203295
-0.202372
-0.201254
-0.199978
-0.198238
-0.195953
-0.193138
-0.1898
-0.185926
-0.181513
-0.176562
-0.171078
-0.165074
-0.158565
-0.151576
-0.144138
-0.136287
-0.128072
-0.119547
-0.110775
-0.101829
-0.0927875
-0.0837364
-0.0747663
-0.0659704
-0.0574426
-0.0492745
-0.0415528
-0.0343563
-0.0277552
-0.0218043
-0.0165517
-0.0120134
-0.00822468
-0.00512859
-0.00280243
-0.00100735
-5.82073e-05