/*--------------------------------*- C++ -*----------------------------------*\
  =========                 |
  \\      /  F ield         | OpenFOAM: The Open Source CFD Toolbox
   \\    /   O peration     | Website:  https://openfoam.org
    \\  /    A nd           | Version:  7
     \\/     M anipulation  |
\*---------------------------------------------------------------------------*/
FoamFile
{
    version     2.0;
    format      ascii;
    class       volScalarField;
    location    "15";
    object      p;
}
// * * * * * * * * * * * * * * * * * * * * * * * * * * * * * * * * * * * * * //

dimensions      [0 2 -2 0 0 0 0];

internalField   nonuniform List<scalar> 
12772
(
-0.287949
-0.293499
-0.295442
-0.295888
-0.295066
-0.293048
-0.289996
-0.286069
-0.281382
-0.275861
-0.288691
-0.294119
-0.295982
-0.296356
-0.295467
-0.293388
-0.290279
-0.286306
-0.281574
-0.275931
-0.290172
-0.295355
-0.297059
-0.297289
-0.296266
-0.294064
-0.290841
-0.286774
-0.281954
-0.276064
-0.29238
-0.297199
-0.298666
-0.298679
-0.297455
-0.295069
-0.291674
-0.287463
-0.282513
-0.27624
-0.295299
-0.299638
-0.300791
-0.300515
-0.299023
-0.29639
-0.292764
-0.288359
-0.283238
-0.276421
-0.298911
-0.302656
-0.303419
-0.302785
-0.300956
-0.298015
-0.294097
-0.289447
-0.284124
-0.276543
-0.303192
-0.306236
-0.306534
-0.305471
-0.30324
-0.299927
-0.295656
-0.290707
-0.285161
-0.27668
-0.308118
-0.310358
-0.310119
-0.308557
-0.305858
-0.302109
-0.297424
-0.292116
-0.28619
-0.27686
-0.313663
-0.314999
-0.314153
-0.312026
-0.308793
-0.304547
-0.299385
-0.29366
-0.287315
-0.276894
-0.319801
-0.320138
-0.318616
-0.315858
-0.31203
-0.307226
-0.301525
-0.295323
-0.28851
-0.276752
-0.326506
-0.325753
-0.323489
-0.320039
-0.315555
-0.310135
-0.303834
-0.297091
-0.289748
-0.276415
-0.333752
-0.331817
-0.328753
-0.32455
-0.319355
-0.313266
-0.306308
-0.298959
-0.291019
-0.275836
-0.341513
-0.338314
-0.334388
-0.329379
-0.323422
-0.316617
-0.308951
-0.300936
-0.292322
-0.274976
-0.349763
-0.345217
-0.340375
-0.33451
-0.327748
-0.320188
-0.311773
-0.303038
-0.293668
-0.273841
-0.358475
-0.352503
-0.346695
-0.339933
-0.33233
-0.323986
-0.314796
-0.305302
-0.295083
-0.272436
-0.367618
-0.360146
-0.353328
-0.345635
-0.337166
-0.328022
-0.318049
-0.30778
-0.296631
-0.270873
-0.377159
-0.368119
-0.360255
-0.351603
-0.342253
-0.332309
-0.321571
-0.310544
-0.298354
-0.269252
-0.387056
-0.376391
-0.367451
-0.357823
-0.347589
-0.336864
-0.325418
-0.313682
-0.300148
-0.267375
-0.397265
-0.384927
-0.37489
-0.364278
-0.353169
-0.341704
-0.329681
-0.317385
-0.302202
-0.266179
-0.407733
-0.393687
-0.382542
-0.370945
-0.358977
-0.346836
-0.334431
-0.321977
-0.306665
-0.275159
-0.418403
-0.402629
-0.390371
-0.377792
-0.364977
-0.352204
-0.33954
-0.327296
-0.315565
-0.313507
-0.429213
-0.411704
-0.398337
-0.384781
-0.371121
-0.357697
-0.344696
-0.332404
-0.32155
-0.32616
-0.440097
-0.420859
-0.406395
-0.391871
-0.377363
-0.363246
-0.349751
-0.337049
-0.325584
-0.330465
-0.450984
-0.430038
-0.414498
-0.399021
-0.383662
-0.368814
-0.354698
-0.341369
-0.328991
-0.332645
-0.461801
-0.439179
-0.422591
-0.406182
-0.389976
-0.374361
-0.359519
-0.345397
-0.331933
-0.333318
-0.472469
-0.448213
-0.430614
-0.4133
-0.396249
-0.379834
-0.364169
-0.349091
-0.334355
-0.332854
-0.4829
-0.457062
-0.438497
-0.420307
-0.402417
-0.385167
-0.368586
-0.352407
-0.336247
-0.331576
-0.493
-0.465642
-0.44616
-0.427129
-0.408404
-0.390282
-0.372697
-0.355291
-0.337599
-0.329658
-0.502661
-0.473856
-0.453512
-0.433676
-0.414119
-0.395087
-0.376419
-0.35768
-0.338379
-0.327175
-0.511765
-0.481597
-0.460453
-0.439849
-0.419463
-0.399482
-0.379656
-0.359498
-0.338537
-0.324152
-0.520181
-0.488747
-0.466869
-0.445537
-0.424324
-0.403356
-0.382304
-0.360658
-0.33801
-0.320576
-0.527767
-0.495179
-0.472638
-0.450618
-0.428579
-0.406588
-0.384252
-0.361068
-0.336725
-0.316406
-0.53437
-0.500755
-0.477627
-0.45496
-0.432097
-0.409049
-0.385381
-0.360625
-0.334599
-0.311584
-0.539828
-0.505328
-0.481695
-0.458423
-0.434738
-0.410605
-0.385567
-0.359226
-0.331548
-0.306038
-0.543971
-0.508745
-0.484693
-0.460861
-0.436359
-0.411117
-0.384685
-0.356762
-0.327482
-0.299689
-0.546624
-0.510848
-0.486466
-0.46212
-0.436809
-0.410444
-0.382608
-0.353128
-0.322316
-0.292457
-0.547611
-0.511473
-0.486858
-0.462046
-0.435939
-0.408446
-0.379213
-0.348221
-0.315964
-0.284263
-0.546754
-0.51046
-0.485708
-0.460482
-0.433597
-0.404984
-0.37438
-0.341943
-0.308352
-0.275034
-0.543881
-0.507645
-0.48286
-0.457274
-0.429639
-0.399927
-0.367999
-0.334207
-0.299411
-0.264704
-0.538825
-0.502875
-0.47816
-0.452274
-0.423925
-0.393153
-0.359968
-0.324935
-0.289082
-0.253219
-0.531429
-0.495998
-0.471462
-0.445341
-0.416325
-0.38455
-0.350198
-0.314061
-0.27732
-0.240535
-0.52155
-0.486878
-0.462629
-0.436343
-0.406722
-0.37402
-0.338617
-0.301534
-0.264092
-0.226621
-0.509059
-0.475388
-0.451538
-0.425164
-0.395013
-0.361482
-0.325165
-0.287318
-0.249378
-0.211455
-0.493847
-0.461421
-0.43808
-0.411704
-0.381114
-0.346873
-0.309803
-0.271392
-0.23317
-0.195032
-0.475828
-0.444885
-0.422169
-0.395884
-0.364961
-0.330148
-0.292508
-0.253752
-0.215478
-0.177357
-0.454937
-0.425714
-0.403734
-0.377642
-0.346509
-0.311285
-0.273277
-0.234408
-0.196323
-0.158455
-0.431139
-0.403861
-0.382733
-0.356945
-0.325741
-0.290284
-0.252127
-0.213386
-0.175738
-0.13835
-0.404423
-0.379309
-0.359146
-0.333781
-0.30266
-0.267168
-0.229094
-0.190732
-0.153761
-0.117
-0.374812
-0.352065
-0.332981
-0.308168
-0.277298
-0.241983
-0.204237
-0.166517
-0.130474
-0.094333
-0.342355
-0.322167
-0.304274
-0.280148
-0.249711
-0.214796
-0.177634
-0.140826
-0.106008
-0.070741
-0.307135
-0.28968
-0.27309
-0.249794
-0.21998
-0.185699
-0.149379
-0.113724
-0.0801808
-0.0465248
-0.269265
-0.254701
-0.239522
-0.217203
-0.188213
-0.154806
-0.119587
-0.0853415
-0.0533092
-0.0213842
-0.228886
-0.217352
-0.203691
-0.182503
-0.154541
-0.12225
-0.0883896
-0.0557923
-0.0255111
0.00456784
-0.186172
-0.177785
-0.165747
-0.145844
-0.119113
-0.0881857
-0.055936
-0.0252139
0.00310804
0.0311746
-0.141319
-0.136182
-0.125867
-0.107391
-0.0821146
-0.0527864
-0.0223903
0.00624131
0.0324167
0.0582739
-0.0945364
-0.0927592
-0.0842396
-0.0673602
-0.0437346
-0.0162389
0.0120687
0.0384111
0.0622745
0.0856774
-0.0460763
-0.0477453
-0.0411005
-0.0259601
-0.00418377
0.0212551
0.0472506
0.071133
0.0925496
0.113089
0.00374128
-0.00135676
0.00331184
0.0165734
0.0363118
0.0594822
0.082958
0.104254
0.123091
0.139973
0.054663
0.0461121
0.048736
0.0599892
0.0775149
0.0982211
0.118994
0.137617
0.153595
0.165592
0.106386
0.0943732
0.0948967
0.104024
0.11918
0.13725
0.155173
0.171026
0.183479
0.189189
0.158587
0.143128
0.141506
0.148406
0.161055
0.176351
0.191331
0.204272
0.212159
0.211919
0.210936
0.192067
0.188267
0.192853
0.202883
0.2153
0.227262
0.237265
0.242181
0.240314
0.263096
0.24087
0.234873
0.237079
0.2444
0.253855
0.262728
0.269675
0.271848
0.268535
0.314724
0.289216
0.281018
0.280795
0.285342
0.291772
0.297506
0.301317
0.300656
0.295585
0.36548
0.33678
0.326392
0.323715
0.325446
0.328819
0.331391
0.332046
0.328533
0.321457
0.415023
0.38324
0.37069
0.365554
0.36446
0.364769
0.364187
0.361702
0.355368
0.34614
0.463019
0.428278
0.413609
0.406036
0.402133
0.399407
0.395707
0.390133
0.381031
0.369582
0.509143
0.471583
0.454857
0.444891
0.438228
0.432524
0.425777
0.417195
0.405405
0.391721
0.553081
0.512857
0.494152
0.481861
0.472514
0.463924
0.454231
0.442752
0.428382
0.412491
0.59453
0.551811
0.531221
0.5167
0.504776
0.493419
0.480913
0.466678
0.449858
0.431826
0.633207
0.588173
0.565808
0.549174
0.534807
0.520834
0.505675
0.488851
0.469736
0.449661
0.668843
0.621687
0.597675
0.579067
0.562418
0.546007
0.528381
0.509158
0.487922
0.465932
0.701191
0.652117
0.6266
0.606178
0.587434
0.568787
0.548906
0.527496
0.504331
0.480577
0.730026
0.679248
0.65238
0.630324
0.609694
0.589039
0.567135
0.54377
0.518881
0.493537
0.755145
0.702887
0.674835
0.651345
0.629057
0.60664
0.582967
0.557893
0.531502
0.504758
0.776373
0.722865
0.693808
0.669097
0.6454
0.621486
0.596311
0.569791
0.54213
0.514192
0.793559
0.73904
0.709166
0.68346
0.658616
0.633486
0.607092
0.5794
0.55071
0.521795
0.806581
0.751294
0.720799
0.694337
0.66862
0.642567
0.615249
0.586669
0.557196
0.527528
0.815346
0.75954
0.728625
0.701652
0.675348
0.648674
0.620734
0.591558
0.561559
0.531383
0.81979
0.763717
0.732588
0.705356
0.678754
0.651766
0.623514
0.594039
0.563787
0.533391
0.81988
0.763793
0.732658
0.705421
0.678816
0.651824
0.623569
0.594092
0.563848
0.533484
0.815613
0.759767
0.728834
0.701847
0.67553
0.648845
0.620896
0.591712
0.561719
0.531582
0.807019
0.751666
0.721141
0.694655
0.668917
0.642845
0.615508
0.58691
0.557424
0.527755
0.794155
0.739547
0.709632
0.683893
0.659018
0.633859
0.607436
0.579714
0.550991
0.522038
0.777112
0.723495
0.694388
0.669634
0.645897
0.621943
0.596727
0.570163
0.542454
0.514453
0.756009
0.703625
0.675514
0.651973
0.629636
0.607169
0.583441
0.55831
0.531856
0.505032
0.730994
0.680078
0.653142
0.63103
0.610341
0.589625
0.567656
0.544219
0.519255
0.493816
0.702242
0.65302
0.62743
0.606944
0.588135
0.569418
0.54946
0.527968
0.504716
0.480855
0.669953
0.622645
0.598557
0.57988
0.563159
0.546669
0.528958
0.509643
0.488312
0.466204
0.634355
0.589167
0.566725
0.550019
0.535574
0.521517
0.506264
0.489341
0.470124
0.449922
0.595695
0.552824
0.532156
0.517561
0.505557
0.494111
0.481506
0.467166
0.450241
0.432072
0.554243
0.513872
0.49509
0.482726
0.473298
0.464616
0.454821
0.443233
0.428755
0.412719
0.510284
0.472585
0.455785
0.445747
0.439003
0.433207
0.426357
0.417664
0.405765
0.391928
0.464123
0.429252
0.414514
0.406872
0.402891
0.400074
0.396271
0.390587
0.381376
0.369767
0.416077
0.384175
0.371561
0.366361
0.365193
0.365415
0.364732
0.362139
0.355696
0.346303
0.366472
0.337666
0.32722
0.324485
0.326148
0.329438
0.331914
0.332464
0.328847
0.321603
0.315646
0.290044
0.281795
0.281521
0.286006
0.292361
0.298006
0.301718
0.300959
0.295724
0.263941
0.241635
0.235594
0.237756
0.245024
0.254411
0.263203
0.270058
0.272146
0.268693
0.2117
0.192763
0.188927
0.193477
0.203463
0.215822
0.227714
0.237634
0.242483
0.240554
0.159267
0.143753
0.142103
0.148975
0.161588
0.176837
0.191759
0.20463
0.212478
0.212282
0.106981
0.094926
0.0954284
0.104536
0.119666
0.137699
0.155578
0.171377
0.183804
0.189682
0.0551749
0.0465925
0.0492025
0.0604439
0.0779525
0.098633
0.119373
0.137957
0.153911
0.166001
0.00417135
-0.000947554
0.00371381
0.016971
0.0367011
0.0598554
0.0833083
0.104576
0.123388
0.1403
-0.0457251
-0.0474051
-0.0407614
-0.0256185
-0.00384242
0.0215894
0.0475707
0.0714333
0.0928299
0.113375
-0.0942603
-0.0924852
-0.083961
-0.067073
-0.0434402
-0.0159433
0.0123584
0.0386889
0.0625383
0.0859398
-0.141113
-0.135971
-0.125646
-0.107156
-0.0818655
-0.0525286
-0.0221306
0.00649655
0.0326639
0.058518
-0.186031
-0.177632
-0.16558
-0.145658
-0.118907
-0.0879643
-0.0557056
-0.024981
0.00333876
0.0314036
-0.228806
-0.217252
-0.203574
-0.182363
-0.154376
-0.122063
-0.0881875
-0.0555811
-0.0252964
0.00478375
-0.269239
-0.25465
-0.239451
-0.217105
-0.188087
-0.154653
-0.119412
-0.0851515
-0.0531102
-0.0211803
-0.307158
-0.289674
-0.273061
-0.249735
-0.219889
-0.185577
-0.14923
-0.113555
-0.0799968
-0.0463328
-0.342421
-0.3222
-0.304282
-0.280125
-0.249652
-0.214702
-0.177509
-0.140676
-0.105837
-0.0705622
-0.374915
-0.352133
-0.333021
-0.308176
-0.277269
-0.241916
-0.204136
-0.166386
-0.13032
-0.0941661
-0.404558
-0.379406
-0.359215
-0.333816
-0.302657
-0.267125
-0.229014
-0.190619
-0.153623
-0.116844
-0.4313
-0.403983
-0.382826
-0.357004
-0.32576
-0.290263
-0.252067
-0.213291
-0.175613
-0.138204
-0.455121
-0.425857
-0.403848
-0.377721
-0.346549
-0.311283
-0.273235
-0.234328
-0.196213
-0.158321
-0.476028
-0.445045
-0.422299
-0.39598
-0.365018
-0.330163
-0.292482
-0.253688
-0.215381
-0.177234
-0.494061
-0.461594
-0.438224
-0.411814
-0.381186
-0.346903
-0.309792
-0.271342
-0.233086
-0.19492
-0.509281
-0.47557
-0.451691
-0.425284
-0.395096
-0.361525
-0.325167
-0.287281
-0.249305
-0.211354
-0.521778
-0.487066
-0.462789
-0.436471
-0.406814
-0.374074
-0.33863
-0.301509
-0.264031
-0.22653
-0.53166
-0.49619
-0.471626
-0.445474
-0.416425
-0.384612
-0.350222
-0.314046
-0.277269
-0.240454
-0.539055
-0.503068
-0.478326
-0.452411
-0.424029
-0.393222
-0.359999
-0.324929
-0.289041
-0.253148
-0.544109
-0.507837
-0.483026
-0.457413
-0.429747
-0.400001
-0.368037
-0.334209
-0.299378
-0.264641
-0.546977
-0.510648
-0.485873
-0.46062
-0.433706
-0.405061
-0.374424
-0.341952
-0.308328
-0.274979
-0.547828
-0.511658
-0.487019
-0.462182
-0.436047
-0.408525
-0.379261
-0.348236
-0.315947
-0.284216
-0.546834
-0.511027
-0.486623
-0.462253
-0.436917
-0.410524
-0.382659
-0.353148
-0.322304
-0.292418
-0.544172
-0.508918
-0.484844
-0.46099
-0.436464
-0.411197
-0.384737
-0.356786
-0.327477
-0.299656
-0.54002
-0.505493
-0.48184
-0.458548
-0.434841
-0.410684
-0.38562
-0.359252
-0.331547
-0.306011
-0.534552
-0.500912
-0.477765
-0.455079
-0.432195
-0.409125
-0.385434
-0.360654
-0.334602
-0.311563
-0.527938
-0.495328
-0.472769
-0.450731
-0.428673
-0.406662
-0.384304
-0.361098
-0.336731
-0.316391
-0.520341
-0.488887
-0.466993
-0.445644
-0.424413
-0.403427
-0.382355
-0.360689
-0.338019
-0.320565
-0.511915
-0.481728
-0.460569
-0.43995
-0.419548
-0.39955
-0.379705
-0.359529
-0.338548
-0.324146
-0.5028
-0.473978
-0.453621
-0.433771
-0.414199
-0.395151
-0.376467
-0.357711
-0.338392
-0.327173
-0.493129
-0.465756
-0.446261
-0.427217
-0.408478
-0.390342
-0.372743
-0.355321
-0.337613
-0.32966
-0.48302
-0.457168
-0.438591
-0.420389
-0.402487
-0.385224
-0.368629
-0.352436
-0.336261
-0.331582
-0.472578
-0.44831
-0.430701
-0.413376
-0.396313
-0.379887
-0.364209
-0.349119
-0.334369
-0.332862
-0.461902
-0.439269
-0.422672
-0.406252
-0.390035
-0.374409
-0.359556
-0.345423
-0.331947
-0.333329
-0.451076
-0.430121
-0.414572
-0.399086
-0.383718
-0.368859
-0.354732
-0.341394
-0.329005
-0.332658
-0.440181
-0.420935
-0.406463
-0.391931
-0.377414
-0.363288
-0.349784
-0.337071
-0.325597
-0.330478
-0.42929
-0.411773
-0.3984
-0.384836
-0.371168
-0.357735
-0.344725
-0.332425
-0.321562
-0.326173
-0.418473
-0.402692
-0.390429
-0.377843
-0.36502
-0.352239
-0.339567
-0.327316
-0.315577
-0.313517
-0.407796
-0.393745
-0.382595
-0.370991
-0.359016
-0.346869
-0.334456
-0.321994
-0.306674
-0.275156
-0.397321
-0.384979
-0.374938
-0.36432
-0.353205
-0.341734
-0.329703
-0.317401
-0.302211
-0.266173
-0.387107
-0.376439
-0.367494
-0.357861
-0.347622
-0.336891
-0.325439
-0.313697
-0.300157
-0.26737
-0.377205
-0.368162
-0.360294
-0.351638
-0.342283
-0.332334
-0.32159
-0.310558
-0.298363
-0.269249
-0.36766
-0.360185
-0.353364
-0.345667
-0.337193
-0.328045
-0.318067
-0.307793
-0.296639
-0.270871
-0.358513
-0.352538
-0.346727
-0.339962
-0.332355
-0.324007
-0.314812
-0.305314
-0.295091
-0.272436
-0.349797
-0.345249
-0.340404
-0.334537
-0.327771
-0.320207
-0.311788
-0.30305
-0.293676
-0.273841
-0.341543
-0.338342
-0.334414
-0.329403
-0.323443
-0.316634
-0.308965
-0.300946
-0.29233
-0.274977
-0.333779
-0.331843
-0.328777
-0.324572
-0.319374
-0.313282
-0.306321
-0.29897
-0.291026
-0.27584
-0.326529
-0.325775
-0.32351
-0.320058
-0.315572
-0.31015
-0.303846
-0.2971
-0.289755
-0.276418
-0.319822
-0.320158
-0.318635
-0.315876
-0.312046
-0.307239
-0.301536
-0.295332
-0.288517
-0.276756
-0.313681
-0.315016
-0.314169
-0.312041
-0.308807
-0.304559
-0.299395
-0.293668
-0.287321
-0.276898
-0.308134
-0.310373
-0.310133
-0.30857
-0.30587
-0.302119
-0.297433
-0.292123
-0.286196
-0.276864
-0.303206
-0.306249
-0.306547
-0.305482
-0.30325
-0.299935
-0.295664
-0.290714
-0.285166
-0.276684
-0.298922
-0.302667
-0.303429
-0.302794
-0.300965
-0.298022
-0.294104
-0.289452
-0.284129
-0.276546
-0.295309
-0.299646
-0.300799
-0.300523
-0.29903
-0.296396
-0.292769
-0.288364
-0.283242
-0.276424
-0.292387
-0.297205
-0.298672
-0.298685
-0.29746
-0.295073
-0.291678
-0.287467
-0.282517
-0.276243
-0.290177
-0.29536
-0.297064
-0.297293
-0.29627
-0.294068
-0.290844
-0.286776
-0.281957
-0.276065
-0.288694
-0.294122
-0.295985
-0.296359
-0.29547
-0.29339
-0.290281
-0.286307
-0.281575
-0.275932
-0.28795
-0.2935
-0.295443
-0.295889
-0.295067
-0.293049
-0.289997
-0.28607
-0.281382
-0.275861
-0.271322
-0.266327
-0.260722
-0.254627
-0.247972
-0.240817
-0.233209
-0.225198
-0.216837
-0.208186
-0.199305
-0.190253
-0.181086
-0.17186
-0.162625
-0.153428
-0.144311
-0.135314
-0.126471
-0.117812
-0.109365
-0.101151
-0.0931912
-0.085502
-0.0780971
-0.0709866
-0.0641798
-0.0576796
-0.0514957
-0.0456141
-0.0400677
-0.0347814
-0.0299016
-0.0251169
-0.0210249
-0.0164485
-0.013592
-0.00833771
-0.00816219
0.000352484
-0.00641103
0.0125662
-0.271727
-0.266647
-0.260995
-0.254874
-0.248196
-0.241021
-0.233397
-0.225371
-0.216999
-0.208338
-0.199447
-0.190386
-0.181212
-0.171979
-0.162738
-0.153534
-0.144412
-0.135409
-0.12656
-0.117896
-0.109442
-0.101223
-0.093258
-0.0855637
-0.0781538
-0.0710386
-0.0642273
-0.0577228
-0.0515349
-0.0456495
-0.0400996
-0.03481
-0.0299271
-0.0251398
-0.0210448
-0.016467
-0.0136064
-0.00835418
-0.00816956
0.000332802
-0.00640495
0.0125288
-0.272532
-0.267283
-0.261535
-0.255363
-0.248639
-0.241425
-0.233769
-0.225715
-0.217319
-0.208637
-0.199729
-0.190652
-0.181464
-0.172217
-0.162962
-0.153747
-0.144612
-0.135598
-0.126737
-0.118061
-0.109597
-0.101367
-0.093391
-0.0856864
-0.0782667
-0.071142
-0.0643218
-0.0578088
-0.0516129
-0.04572
-0.040163
-0.034867
-0.0299779
-0.0251855
-0.0210846
-0.0165041
-0.0136354
-0.00838724
-0.00818445
0.000293321
-0.00639295
0.0124543
-0.27373
-0.268223
-0.262332
-0.256086
-0.249293
-0.242021
-0.234316
-0.226222
-0.217791
-0.209079
-0.200145
-0.191045
-0.181836
-0.172569
-0.163296
-0.154062
-0.14491
-0.135878
-0.127001
-0.118308
-0.109827
-0.101581
-0.0935892
-0.0858695
-0.0784351
-0.0712964
-0.0644628
-0.0579371
-0.0517293
-0.0458252
-0.0402578
-0.0349522
-0.0300538
-0.0252539
-0.021144
-0.0165597
-0.0136787
-0.00843677
-0.00820677
0.000234212
-0.00637512
0.012343
-0.275333
-0.269449
-0.26337
-0.25703
-0.250144
-0.242795
-0.235028
-0.22688
-0.218405
-0.209656
-0.200689
-0.19156
-0.182324
-0.173032
-0.163735
-0.154478
-0.145303
-0.136249
-0.127349
-0.118634
-0.110131
-0.101864
-0.0938518
-0.0861119
-0.0786582
-0.071501
-0.0646497
-0.0581072
-0.0518836
-0.0459647
-0.0403834
-0.0350651
-0.0301546
-0.0253446
-0.0212229
-0.0166334
-0.0137362
-0.00850257
-0.00823642
0.000155737
-0.00635155
0.0121957
-0.277376
-0.270914
-0.264623
-0.258177
-0.251172
-0.24373
-0.235887
-0.227678
-0.21915
-0.210357
-0.201351
-0.192188
-0.182921
-0.1736
-0.164275
-0.15499
-0.145788
-0.136706
-0.127779
-0.119037
-0.110508
-0.102215
-0.0941771
-0.0864125
-0.0789349
-0.0717547
-0.0648816
-0.0583183
-0.0520751
-0.0461379
-0.0405394
-0.0352053
-0.0302797
-0.0254572
-0.0213208
-0.016725
-0.0138076
-0.00858439
-0.00827323
5.82408e-05
-0.00632239
0.0120133
-0.279585
-0.272645
-0.266071
-0.259494
-0.252364
-0.244809
-0.236879
-0.228597
-0.220011
-0.211169
-0.202121
-0.192921
-0.183619
-0.174265
-0.164908
-0.155593
-0.146359
-0.137246
-0.128288
-0.119515
-0.110955
-0.102631
-0.0945634
-0.0867696
-0.0792638
-0.0720565
-0.0651574
-0.0585695
-0.052303
-0.0463439
-0.040725
-0.0353722
-0.0304285
-0.0255913
-0.0214373
-0.0168342
-0.0138926
-0.00868191
-0.00831702
-5.78538e-05
-0.0062878
0.0117969
-0.28206
-0.274727
-0.267701
-0.260968
-0.253691
-0.246009
-0.237981
-0.229622
-0.220972
-0.212078
-0.202986
-0.193747
-0.184409
-0.175021
-0.16563
-0.156281
-0.147013
-0.137865
-0.128872
-0.120064
-0.111469
-0.10311
-0.0950086
-0.0871815
-0.0796433
-0.0724048
-0.0654758
-0.0588595
-0.0525663
-0.046582
-0.0409394
-0.0355651
-0.0306005
-0.0257463
-0.021572
-0.0169605
-0.0139908
-0.00879475
-0.00836757
-0.000192046
-0.00624799
0.0115479
-0.284842
-0.277137
-0.269492
-0.262573
-0.255128
-0.247305
-0.239172
-0.23073
-0.222016
-0.21307
-0.203934
-0.194656
-0.185282
-0.175859
-0.166433
-0.157048
-0.147744
-0.138559
-0.129528
-0.120681
-0.112047
-0.10365
-0.0955104
-0.087646
-0.0800715
-0.0727979
-0.0658354
-0.0591872
-0.0528637
-0.046851
-0.0411818
-0.0357831
-0.0307949
-0.0259215
-0.0217241
-0.0171033
-0.0141017
-0.00892249
-0.00842463
-0.000343762
-0.00620314
0.0112677
-0.287877
-0.279502
-0.271383
-0.264278
-0.256647
-0.248672
-0.240428
-0.231904
-0.223126
-0.214129
-0.204951
-0.195636
-0.186227
-0.17677
-0.167309
-0.157887
-0.148545
-0.139321
-0.13025
-0.121362
-0.112686
-0.104247
-0.0960661
-0.0881608
-0.0805463
-0.0732342
-0.0662346
-0.059551
-0.0531939
-0.0471498
-0.041451
-0.0360253
-0.0310109
-0.0261163
-0.0218932
-0.0172621
-0.0142249
-0.00906463
-0.00848791
-0.000512364
-0.00615347
0.0109579
-0.291181
-0.28207
-0.273374
-0.26605
-0.258217
-0.250084
-0.241728
-0.233121
-0.224282
-0.215239
-0.206023
-0.196674
-0.187234
-0.177744
-0.16825
-0.158792
-0.149412
-0.140148
-0.131034
-0.122103
-0.113383
-0.104899
-0.0966729
-0.0887233
-0.0810656
-0.0737115
-0.0666715
-0.0599493
-0.0535556
-0.0474771
-0.0417458
-0.0362906
-0.0312474
-0.0263298
-0.0220783
-0.0174363
-0.0143597
-0.00922064
-0.00855713
-0.000697149
-0.0060992
0.0106203
-0.294562
-0.284763
-0.275419
-0.267854
-0.259808
-0.251513
-0.243047
-0.234362
-0.225469
-0.216385
-0.207137
-0.19776
-0.188292
-0.178773
-0.169247
-0.159755
-0.150337
-0.141032
-0.131875
-0.122899
-0.114132
-0.105601
-0.0973276
-0.0893309
-0.0816269
-0.0742277
-0.0671442
-0.0603804
-0.0539472
-0.0478315
-0.0420651
-0.036578
-0.0315036
-0.026561
-0.0222787
-0.0176252
-0.0145056
-0.00938993
-0.00863197
-0.000897356
-0.00604055
0.0102567
-0.297854
-0.287503
-0.277472
-0.26965
-0.261387
-0.252933
-0.244362
-0.235608
-0.226668
-0.217552
-0.208281
-0.198882
-0.189391
-0.179848
-0.170294
-0.160769
-0.151315
-0.141969
-0.132769
-0.123746
-0.114931
-0.106351
-0.0980274
-0.0899809
-0.0822277
-0.0747806
-0.0676507
-0.0608425
-0.054367
-0.0482116
-0.0424076
-0.0368863
-0.0317783
-0.0268092
-0.0224937
-0.017828
-0.014662
-0.00957188
-0.00871211
-0.00111217
-0.00597775
0.00986899
-0.301381
-0.290268
-0.279492
-0.271401
-0.262921
-0.254318
-0.245654
-0.236841
-0.227866
-0.218729
-0.209441
-0.200029
-0.190523
-0.18096
-0.171382
-0.161828
-0.152339
-0.142954
-0.13371
-0.12464
-0.115776
-0.107144
-0.0987691
-0.0906705
-0.0828658
-0.075368
-0.0681892
-0.0613338
-0.0548135
-0.0486158
-0.0427718
-0.0372143
-0.0320706
-0.0270734
-0.0227222
-0.018044
-0.0148283
-0.00976583
-0.00879722
-0.00134076
-0.00591099
0.00945897
-0.304774
-0.292943
-0.281434
-0.273061
-0.264372
-0.255641
-0.246901
-0.238045
-0.229048
-0.219901
-0.210608
-0.201191
-0.191677
-0.182101
-0.172503
-0.162923
-0.153402
-0.143979
-0.134692
-0.125576
-0.116662
-0.107978
-0.0995489
-0.0913962
-0.0835376
-0.075987
-0.0687567
-0.0618519
-0.0552844
-0.0490422
-0.043156
-0.0375603
-0.0323788
-0.0273522
-0.0229632
-0.0182722
-0.0150035
-0.00997102
-0.00888681
-0.00158229
-0.00584026
0.00902847
-0.307876
-0.295378
-0.28322
-0.274568
-0.265697
-0.256872
-0.24808
-0.2392
-0.230197
-0.221053
-0.211766
-0.202353
-0.192838
-0.183256
-0.173644
-0.164043
-0.154493
-0.145034
-0.135706
-0.126543
-0.117579
-0.108842
-0.100359
-0.0921507
-0.0842368
-0.0766316
-0.0693482
-0.0623921
-0.0557755
-0.0494872
-0.043557
-0.0379216
-0.0327006
-0.0276436
-0.023215
-0.0185113
-0.0151865
-0.0101864
-0.00898023
-0.00183578
-0.00576555
0.00857929
-0.310312
-0.297331
-0.284791
-0.275887
-0.266871
-0.257998
-0.249185
-0.240301
-0.231308
-0.22218
-0.21291
-0.203509
-0.194002
-0.18442
-0.174799
-0.165181
-0.155606
-0.146115
-0.136747
-0.127539
-0.118525
-0.109735
-0.101197
-0.0929322
-0.0849617
-0.0773005
-0.0699623
-0.0629533
-0.056286
-0.0499499
-0.0439741
-0.0382977
-0.0330356
-0.0279473
-0.0234773
-0.0187607
-0.0153775
-0.0104113
-0.00907818
-0.00209956
-0.00568874
0.00811401
-0.311798
-0.29881
-0.286249
-0.277073
-0.267934
-0.25906
-0.250258
-0.241393
-0.232427
-0.223328
-0.214086
-0.204709
-0.195218
-0.185643
-0.17602
-0.166389
-0.156792
-0.14727
-0.137862
-0.128608
-0.119543
-0.110697
-0.1021
-0.0937755
-0.0857441
-0.0780223
-0.0706247
-0.0635583
-0.0568357
-0.0504476
-0.0444222
-0.0387011
-0.0333945
-0.0282716
-0.0237574
-0.0190254
-0.0155813
-0.0106474
-0.00918482
-0.0023715
-0.00561506
0.00763602
-0.312384
-0.299272
-0.287254
-0.277915
-0.268748
-0.259965
-0.25124
-0.242438
-0.23353
-0.224487
-0.215295
-0.205961
-0.196504
-0.186951
-0.177338
-0.167704
-0.158091
-0.148541
-0.139096
-0.129795
-0.120675
-0.11177
-0.103108
-0.0947168
-0.0866173
-0.0788274
-0.0713626
-0.0642309
-0.0574456
-0.0509981
-0.0449161
-0.039144
-0.0337866
-0.0286245
-0.0240604
-0.0193101
-0.0157995
-0.0108979
-0.00929797
-0.00265587
-0.00553717
0.00714191
-0.30531
-0.294061
-0.286062
-0.277432
-0.26859
-0.260113
-0.251588
-0.242918
-0.234112
-0.225153
-0.216034
-0.206762
-0.197356
-0.187844
-0.17826
-0.168644
-0.159037
-0.149482
-0.140023
-0.130699
-0.121548
-0.112605
-0.103902
-0.0954647
-0.0873172
-0.0794781
-0.0719637
-0.0647832
-0.0579498
-0.051457
-0.0453302
-0.0395195
-0.0341195
-0.028931
-0.024319
-0.019569
-0.0159809
-0.0111467
-0.0093702
-0.00297362
-0.00539175
0.00660558
-0.268785
-0.279393
-0.283362
-0.276656
-0.268391
-0.260294
-0.251975
-0.243389
-0.234605
-0.225637
-0.216492
-0.207184
-0.197741
-0.188191
-0.178574
-0.168928
-0.159297
-0.149723
-0.140247
-0.130911
-0.121751
-0.112802
-0.104094
-0.0956537
-0.0875038
-0.079663
-0.0721471
-0.064966
-0.058131
-0.0516389
-0.0455085
-0.0397027
-0.0342917
-0.0291214
-0.0244748
-0.0197838
-0.0160913
-0.0114316
-0.00935931
-0.0034401
-0.00506834
0.00582907
-0.263363
-0.268982
-0.274825
-0.269448
-0.262084
-0.254852
-0.247264
-0.239254
-0.230945
-0.222394
-0.213623
-0.204658
-0.19553
-0.186273
-0.176926
-0.167529
-0.158125
-0.148757
-0.139468
-0.130298
-0.121286
-0.112466
-0.103871
-0.0955271
-0.08746
-0.0796892
-0.0722314
-0.0650983
-0.0583014
-0.0518408
-0.0457319
-0.0399469
-0.0345407
-0.029391
-0.0247232
-0.0200765
-0.0163021
-0.0117741
-0.00945703
-0.00392448
-0.00486522
0.00495474
-0.258215
-0.260745
-0.265995
-0.261476
-0.254849
-0.248308
-0.241377
-0.233942
-0.226141
-0.218052
-0.209708
-0.201143
-0.19239
-0.183487
-0.174472
-0.165386
-0.156272
-0.147171
-0.138127
-0.129181
-0.12037
-0.111731
-0.103296
-0.0950946
-0.0871516
-0.0794886
-0.0721235
-0.0650694
-0.0583387
-0.0519339
-0.0458688
-0.0401226
-0.0347395
-0.0296208
-0.0249498
-0.0203459
-0.0165162
-0.0120948
-0.00958756
-0.0043674
-0.00474308
0.00412135
-0.253035
-0.253088
-0.257311
-0.253437
-0.247444
-0.241465
-0.235112
-0.228231
-0.22094
-0.213325
-0.205426
-0.197279
-0.188922
-0.180391
-0.171728
-0.162973
-0.154167
-0.145353
-0.136574
-0.127869
-0.119279
-0.110839
-0.102582
-0.0945395
-0.0867366
-0.0791962
-0.0719374
-0.0649749
-0.0583218
-0.051983
-0.0459712
-0.0402714
-0.0349193
-0.0298364
-0.0251697
-0.0206096
-0.0167339
-0.0124131
-0.00973119
-0.00480703
-0.00464294
0.0032973
-0.246827
-0.245247
-0.248242
-0.244802
-0.239396
-0.233942
-0.228149
-0.221836
-0.215088
-0.207989
-0.20058
-0.192897
-0.18498
-0.176866
-0.168595
-0.160208
-0.151747
-0.143253
-0.13477
-0.126337
-0.117995
-0.109779
-0.101724
-0.0938608
-0.086217
-0.0788163
-0.0716793
-0.064822
-0.0582586
-0.0519961
-0.0460468
-0.0404009
-0.0350869
-0.030044
-0.0253881
-0.0208716
-0.0169583
-0.0127309
-0.00988938
-0.0052428
-0.00456515
0.00248811
-0.239022
-0.236669
-0.238464
-0.235352
-0.230536
-0.225616
-0.220385
-0.214657
-0.208487
-0.201945
-0.195071
-0.187901
-0.180471
-0.172819
-0.164987
-0.157012
-0.148937
-0.140804
-0.132654
-0.124529
-0.116466
-0.108505
-0.10068
-0.0930224
-0.0855612
-0.0783217
-0.0713254
-0.0645903
-0.0581316
-0.0519585
-0.0460832
-0.0405005
-0.0352337
-0.0302364
-0.0255991
-0.0211269
-0.0171859
-0.0130439
-0.010061
-0.00566816
-0.00451468
0.00170644
-0.229522
-0.227052
-0.227836
-0.225038
-0.220846
-0.21649
-0.211834
-0.206711
-0.201146
-0.195196
-0.188896
-0.18228
-0.17538
-0.168235
-0.160882
-0.153361
-0.145713
-0.137979
-0.1302
-0.122416
-0.114668
-0.106993
-0.0994265
-0.0920017
-0.0847482
-0.0776925
-0.0708578
-0.0642635
-0.0579261
-0.051857
-0.0460687
-0.0405601
-0.0353505
-0.0304058
-0.0257957
-0.0213697
-0.0174111
-0.0133478
-0.0102421
-0.00607867
-0.0044912
0.000963096
-0.218369
-0.216279
-0.216323
-0.213875
-0.210346
-0.206595
-0.202535
-0.198033
-0.193097
-0.187767
-0.182074
-0.176045
-0.169712
-0.163111
-0.156276
-0.149247
-0.142063
-0.134764
-0.127391
-0.119984
-0.112582
-0.105224
-0.0979464
-0.0907819
-0.0837616
-0.0769135
-0.0702619
-0.0638279
-0.0576296
-0.0516801
-0.0459929
-0.0405701
-0.0354287
-0.0305445
-0.0259708
-0.0215941
-0.0176283
-0.0136381
-0.010428
-0.00647052
-0.00449233
0.000267646
-0.205769
-0.20439
-0.203991
-0.201948
-0.199112
-0.196001
-0.192558
-0.18869
-0.184397
-0.179706
-0.174642
-0.169227
-0.163489
-0.15746
-0.151175
-0.14467
-0.137983
-0.131152
-0.124218
-0.117219
-0.110196
-0.103185
-0.0962247
-0.0893478
-0.0825866
-0.07597
-0.0695238
-0.0632705
-0.0572295
-0.0514163
-0.0458449
-0.0405209
-0.0354594
-0.0306448
-0.0261172
-0.021794
-0.0178313
-0.0139103
-0.0106137
-0.00683954
-0.00451507
-0.000371115
-0.192064
-0.191559
-0.190997
-0.189411
-0.187278
-0.184827
-0.182014
-0.178785
-0.175139
-0.171094
-0.166668
-0.161879
-0.156753
-0.151318
-0.145605
-0.139649
-0.133485
-0.127149
-0.120682
-0.11412
-0.107502
-0.100867
-0.094251
-0.087688
-0.0812109
-0.0748494
-0.0686306
-0.0625785
-0.056714
-0.051054
-0.0456141
-0.0404025
-0.0354333
-0.0306982
-0.026227
-0.0219626
-0.0180136
-0.0141592
-0.0107937
-0.00718134
-0.00455577
-0.000945526
-0.177663
-0.178059
-0.177562
-0.176469
-0.175023
-0.173229
-0.171043
-0.168445
-0.165438
-0.162033
-0.158242
-0.154081
-0.149572
-0.144739
-0.139611
-0.134218
-0.128594
-0.122774
-0.116795
-0.110692
-0.104505
-0.0982691
-0.0920212
-0.085796
-0.0796261
-0.0735422
-0.0675724
-0.0617416
-0.0560722
-0.0505828
-0.0452902
-0.0402051
-0.0353413
-0.0306963
-0.0262923
-0.0220931
-0.0181685
-0.0143794
-0.0109621
-0.00749152
-0.00461011
-0.00144958
-0.162989
-0.164207
-0.163937
-0.163348
-0.162548
-0.161384
-0.159805
-0.157816
-0.155427
-0.152643
-0.149471
-0.145927
-0.142027
-0.137793
-0.133252
-0.128427
-0.123352
-0.118059
-0.112581
-0.106955
-0.101215
-0.0953977
-0.0895384
-0.0836713