/*--------------------------------*- C++ -*----------------------------------*\
  =========                 |
  \\      /  F ield         | OpenFOAM: The Open Source CFD Toolbox
   \\    /   O peration     | Website:  https://openfoam.org
    \\  /    A nd           | Version:  7
     \\/     M anipulation  |
\*---------------------------------------------------------------------------*/
FoamFile
{
    version     2.0;
    format      ascii;
    class       volScalarField;
    location    "5";
    object      p;
}
// * * * * * * * * * * * * * * * * * * * * * * * * * * * * * * * * * * * * * //

dimensions      [0 2 -2 0 0 0 0];

internalField   nonuniform List<scalar> 
8330
(
-0.343198
-0.354111
-0.359246
-0.369616
-0.382704
-0.399268
-0.418325
-0.438946
-0.459541
-0.478037
-0.491857
-0.498225
-0.49471
-0.475452
-0.343883
-0.35463
-0.359765
-0.370124
-0.38323
-0.399835
-0.418964
-0.439696
-0.46045
-0.47916
-0.493269
-0.499916
-0.496976
-0.477692
-0.345228
-0.355645
-0.36078
-0.371113
-0.384252
-0.400927
-0.420189
-0.441128
-0.462183
-0.48129
-0.49595
-0.503094
-0.501287
-0.481924
-0.347185
-0.357117
-0.362244
-0.372532
-0.385706
-0.402471
-0.421907
-0.443119
-0.464576
-0.484211
-0.49964
-0.507383
-0.507228
-0.487696
-0.349687
-0.358989
-0.364095
-0.374307
-0.387507
-0.404359
-0.423981
-0.445496
-0.467409
-0.487628
-0.503986
-0.512293
-0.514242
-0.494422
-0.352649
-0.361188
-0.366252
-0.376349
-0.389547
-0.40646
-0.426248
-0.448049
-0.470419
-0.491194
-0.508581
-0.517283
-0.521691
-0.501458
-0.355974
-0.363637
-0.368626
-0.378557
-0.391706
-0.408629
-0.428528
-0.450554
-0.473326
-0.494547
-0.512999
-0.521823
-0.528926
-0.508084
-0.359561
-0.366251
-0.371124
-0.380823
-0.393858
-0.410714
-0.430638
-0.452783
-0.475857
-0.49734
-0.516826
-0.525432
-0.535356
-0.513607
-0.363303
-0.368947
-0.373653
-0.383043
-0.39588
-0.412568
-0.432403
-0.454525
-0.477763
-0.499278
-0.519711
-0.527745
-0.54035
-0.51798
-0.3671
-0.371647
-0.376125
-0.385119
-0.397656
-0.414058
-0.433666
-0.455599
-0.478839
-0.50014
-0.521345
-0.528792
-0.542913
-0.520869
-0.370856
-0.374284
-0.378464
-0.386966
-0.399089
-0.41507
-0.4343
-0.455867
-0.478938
-0.499854
-0.521283
-0.528493
-0.543613
-0.52182
-0.374489
-0.3768
-0.380607
-0.388515
-0.4001
-0.41552
-0.434213
-0.455253
-0.477914
-0.498393
-0.519749
-0.526505
-0.542393
-0.520829
-0.377934
-0.379146
-0.382508
-0.389721
-0.400638
-0.415355
-0.433372
-0.453703
-0.475797
-0.495679
-0.516825
-0.523025
-0.539272
-0.51801
-0.38113
-0.381298
-0.384149
-0.390552
-0.400678
-0.414554
-0.431752
-0.451246
-0.472636
-0.491833
-0.512577
-0.51829
-0.534372
-0.513524
-0.384041
-0.383242
-0.385508
-0.391012
-0.400225
-0.413137
-0.429392
-0.447951
-0.468522
-0.487036
-0.507177
-0.512535
-0.527848
-0.507527
-0.386646
-0.384973
-0.386592
-0.391119
-0.399311
-0.411154
-0.426373
-0.443932
-0.463597
-0.481058
-0.500815
-0.505967
-0.519864
-0.500119
-0.38894
-0.386501
-0.387425
-0.39091
-0.397993
-0.408688
-0.422807
-0.439342
-0.458087
-0.474903
-0.493751
-0.49874
-0.510604
-0.491331
-0.390932
-0.387843
-0.388039
-0.390438
-0.396349
-0.405844
-0.418833
-0.434353
-0.452177
-0.468346
-0.486181
-0.490931
-0.500276
-0.481169
-0.392645
-0.389025
-0.388476
-0.389768
-0.394472
-0.402748
-0.414607
-0.429147
-0.446076
-0.461573
-0.478261
-0.482551
-0.489092
-0.469695
-0.394115
-0.390081
-0.388783
-0.388972
-0.392463
-0.399532
-0.41029
-0.423896
-0.439951
-0.454724
-0.470088
-0.473586
-0.477234
-0.457084
-0.395388
-0.391045
-0.389012
-0.388126
-0.390429
-0.39633
-0.406037
-0.418763
-0.433937
-0.447882
-0.461695
-0.46403
-0.46484
-0.443617
-0.39196
-0.389218
-0.387304
-0.388471
-0.393268
-0.401984
-0.413871
-0.428123
-0.441083
-0.453077
-0.453917
-0.452025
-0.429626
-0.392867
-0.389454
-0.38658
-0.386685
-0.390458
-0.39825
-0.409307
-0.422547
-0.434328
-0.444206
-0.443322
-0.438912
-0.415436
-0.393813
-0.389776
-0.386021
-0.385156
-0.38799
-0.394913
-0.405119
-0.417202
-0.42759
-0.435064
-0.432363
-0.425627
-0.401309
-0.394844
-0.390237
-0.38569
-0.383954
-0.385937
-0.39202
-0.401312
-0.412058
-0.420827
-0.425661
-0.421177
-0.412253
-0.38744
-0.390888
-0.38564
-0.383135
-0.384337
-0.389584
-0.397859
-0.407069
-0.413994
-0.416053
-0.409902
-0.398763
-0.373995
-0.391775
-0.385915
-0.382733
-0.383204
-0.387582
-0.394712
-0.402187
-0.407056
-0.40635
-0.398658
-0.38509
-0.361187
-0.392938
-0.386546
-0.382764
-0.382523
-0.385972
-0.391807
-0.397358
-0.400003
-0.396688
-0.387554
-0.371476
-0.349237
-0.394407
-0.387548
-0.38322
-0.382259
-0.384696
-0.389071
-0.392537
-0.392854
-0.387182
-0.376676
-0.358825
-0.338038
-0.388926
-0.384076
-0.38236
-0.383689
-0.386428
-0.387687
-0.385653
-0.377894
-0.366076
-0.347461
-0.327699
-0.390666
-0.385291
-0.38277
-0.382878
-0.383805
-0.382785
-0.378454
-0.368859
-0.355895
-0.336906
-0.317713
-0.386816
-0.38343
-0.382184
-0.38114
-0.377824
-0.371305
-0.360107
-0.346148
-0.327011
-0.308282
-0.388605
-0.384284
-0.381529
-0.378388
-0.372807
-0.364246
-0.351647
-0.336843
-0.317668
-0.29927
-0.390619
-0.385266
-0.380836
-0.375517
-0.367743
-0.357302
-0.343481
-0.327959
-0.308793
-0.290683
-0.386309
-0.380042
-0.372511
-0.362643
-0.350489
-0.335598
-0.319463
-0.300331
-0.282462
-0.38734
-0.379099
-0.36936
-0.357518
-0.343813
-0.327981
-0.311317
-0.292228
-0.27457
-0.377968
-0.366063
-0.352375
-0.337268
-0.320606
-0.303479
-0.284438
-0.266962
-0.362619
-0.347215
-0.330844
-0.313445
-0.295909
-0.276915
-0.259598
-0.359031
-0.342038
-0.324525
-0.306468
-0.288566
-0.269619
-0.25244
-0.336838
-0.318293
-0.299644
-0.281412
-0.262512
-0.245453
-0.312124
-0.292942
-0.274411
-0.255559
-0.238604
-0.28633
-0.267529
-0.248727
-0.231865
-0.260733
-0.241986
-0.225207
-0.235307
-0.218606
-0.212039
-0.212026
-0.253981
-0.235294
-0.218593
-0.279765
-0.26072
-0.241972
-0.225194
-0.286317
-0.267516
-0.248714
-0.231852
-0.312112
-0.292929
-0.274399
-0.255547
-0.238592
-0.336827
-0.318281
-0.299632
-0.2814
-0.2625
-0.24544
-0.359021
-0.342027
-0.324513
-0.306456
-0.288554
-0.269607
-0.252428
-0.36261
-0.347204
-0.330832
-0.313433
-0.295897
-0.276903
-0.259586
-0.377961
-0.366054
-0.352364
-0.337256
-0.320594
-0.303468
-0.284426
-0.26695
-0.387334
-0.379092
-0.369351
-0.357508
-0.343802
-0.32797
-0.311305
-0.292216
-0.274559
-0.386303
-0.380036
-0.372503
-0.362634
-0.350479
-0.335587
-0.319452
-0.30032
-0.282451
-0.390614
-0.385261
-0.380829
-0.375509
-0.367734
-0.357292
-0.34347
-0.327948
-0.308782
-0.290672
-0.3886
-0.384278
-0.381522
-0.37838
-0.372798
-0.364236
-0.351637
-0.336833
-0.317657
-0.299259
-0.392741
-0.386811
-0.383425
-0.382178
-0.381133
-0.377815
-0.371296
-0.360097
-0.346137
-0.327001
-0.308272
-0.390661
-0.385286
-0.382764
-0.382871
-0.383798
-0.382777
-0.378445
-0.368849
-0.355885
-0.336895
-0.317702
-0.388921
-0.384072
-0.382355
-0.383682
-0.386421
-0.387679
-0.385645
-0.377885
-0.366066
-0.347451
-0.327689
-0.394403
-0.387544
-0.383215
-0.382254
-0.38469
-0.389064
-0.39253
-0.392846
-0.387173
-0.376667
-0.358815
-0.338029
-0.392934
-0.386541
-0.382759
-0.382518
-0.385966
-0.3918
-0.397351
-0.399995
-0.396679
-0.387544
-0.371467
-0.349228
-0.391771
-0.385911
-0.382728
-0.383198
-0.387576
-0.394705
-0.402179
-0.407048
-0.406341
-0.398649
-0.385081
-0.361178
-0.396004
-0.390884
-0.385636
-0.38313
-0.384331
-0.389577
-0.397852
-0.407062
-0.413986
-0.416045
-0.409893
-0.398755
-0.373986
-0.39484
-0.390232
-0.385685
-0.383949
-0.385931
-0.392014
-0.401305
-0.41205
-0.420819
-0.425653
-0.421169
-0.412244
-0.387432
-0.393809
-0.389771
-0.386016
-0.385151
-0.387984
-0.394906
-0.405112
-0.417195
-0.427582
-0.435056
-0.432355
-0.425619
-0.401301
-0.392863
-0.389449
-0.386575
-0.38668
-0.390452
-0.398243
-0.4093
-0.422539
-0.43432
-0.444198
-0.443314
-0.438904
-0.415428
-0.391956
-0.389213
-0.387299
-0.388466
-0.393262
-0.401978
-0.413864
-0.428116
-0.441076
-0.453069
-0.453909
-0.452018
-0.42962
-0.395384
-0.391041
-0.389008
-0.388121
-0.390424
-0.396324
-0.40603
-0.418756
-0.433929
-0.447874
-0.461687
-0.464023
-0.464832
-0.443611
-0.394111
-0.390077
-0.388779
-0.388967
-0.392458
-0.399526
-0.410283
-0.423888
-0.439943
-0.454716
-0.47008
-0.473578
-0.477227
-0.457079
-0.392641
-0.389021
-0.388472
-0.389763
-0.394466
-0.402742
-0.4146
-0.429139
-0.446068
-0.461565
-0.478253
-0.482543
-0.489085
-0.46969
-0.390928
-0.387839
-0.388035
-0.390433
-0.396344
-0.405838
-0.418826
-0.434345
-0.452169
-0.468339
-0.486173
-0.490923
-0.500269
-0.481165
-0.388936
-0.386497
-0.387421
-0.390905
-0.397988
-0.408681
-0.4228
-0.439334
-0.458079
-0.474896
-0.493742
-0.498732
-0.510597
-0.491327
-0.386642
-0.384969
-0.386588
-0.391114
-0.399306
-0.411148
-0.426366
-0.443924
-0.463588
-0.481051
-0.500806
-0.505959
-0.519858
-0.500115
-0.384036
-0.383238
-0.385503
-0.391008
-0.40022
-0.413131
-0.429385
-0.447943
-0.468513
-0.487024
-0.507168
-0.512526
-0.527842
-0.507523
-0.381125
-0.381294
-0.384145
-0.390548
-0.400673
-0.414548
-0.431745
-0.451238
-0.472626
-0.491821
-0.512567
-0.518281
-0.534366
-0.51352
-0.377929
-0.379142
-0.382504
-0.389716
-0.400633
-0.415349
-0.433365
-0.453695
-0.475787
-0.495668
-0.516815
-0.523015
-0.539266
-0.518007
-0.374485
-0.376796
-0.380602
-0.388511
-0.400095
-0.415514
-0.434205
-0.455245
-0.477905
-0.498382
-0.519739
-0.526496
-0.542386
-0.520825
-0.370852
-0.37428
-0.37846
-0.386961
-0.399084
-0.415065
-0.434293
-0.45586
-0.478929
-0.499844
-0.521274
-0.528484
-0.543606
-0.521816
-0.367096
-0.371644
-0.376121
-0.385115
-0.397652
-0.414052
-0.43366
-0.455591
-0.47883
-0.50013
-0.521335
-0.528783
-0.542906
-0.520866
-0.3633
-0.368943
-0.373649
-0.383039
-0.395876
-0.412563
-0.432397
-0.454518
-0.477754
-0.499268
-0.519702
-0.527737
-0.540345
-0.517977
-0.359558
-0.366248
-0.371121
-0.380819
-0.393854
-0.410709
-0.430633
-0.452776
-0.475849
-0.497332
-0.516818
-0.525424
-0.535351
-0.513604
-0.355972
-0.363634
-0.368623
-0.378553
-0.391702
-0.408624
-0.428523
-0.450548
-0.473319
-0.494539
-0.512991
-0.521815
-0.52892
-0.508082
-0.352646
-0.361186
-0.366249
-0.376346
-0.389544
-0.406456
-0.426243
-0.448044
-0.470413
-0.491187
-0.508574
-0.517276
-0.521686
-0.501455
-0.349685
-0.358987
-0.364093
-0.374305
-0.387504
-0.404356
-0.423977
-0.445491
-0.467404
-0.487622
-0.50398
-0.512287
-0.514238
-0.494419
-0.347184
-0.357116
-0.362243
-0.37253
-0.385704
-0.402469
-0.421904
-0.443115
-0.464572
-0.484206
-0.499635
-0.507379
-0.507225
-0.487694
-0.345227
-0.355644
-0.360778
-0.371111
-0.38425
-0.400926
-0.420187
-0.441125
-0.462179
-0.481286
-0.495947
-0.503091
-0.501284
-0.481923
-0.343882
-0.354629
-0.359764
-0.370123
-0.383229
-0.399833
-0.418962
-0.439694
-0.460448
-0.479158
-0.493266
-0.499914
-0.496974
-0.477691
-0.343198
-0.354111
-0.359246
-0.369615
-0.382703
-0.399268
-0.418325
-0.438946
-0.459541
-0.478036
-0.491856
-0.498225
-0.494709
-0.475452
-0.457024
-0.447667
-0.436889
-0.424613
-0.410777
-0.39534
-0.37828
-0.3596
-0.339334
-0.317548
-0.294349
-0.269883
-0.244341
-0.217955
-0.191002
-0.163793
-0.136674
-0.110009
-0.0841824
-0.0595618
-0.0364915
-0.0152868
0.00379162
0.0205461
0.0348495
0.0466481
0.0559594
0.0628682
0.0675115
0.0700773
0.0707642
0.0698237
0.0674294
0.0638984
0.0592352
0.0539434
0.0475568
0.0411691
0.0331425
0.026179
0.0158198
0.00861044
-0.459992
-0.450667
-0.439912
-0.427656
-0.413831
-0.398393
-0.381322
-0.362618
-0.342316
-0.320481
-0.297218
-0.272674
-0.247039
-0.220549
-0.193478
-0.166141
-0.138884
-0.112073
-0.086107
-0.0613445
-0.0381244
-0.016783
0.00242513
0.0193024
0.0337201
0.0456244
0.0550332
0.0620316
0.0667575
0.0693994
0.070157
0.069282
0.0669487
0.063474
0.0588641
0.0536202
0.0472818
0.0409335
0.0329557
0.0260209
0.0157266
0.00852851
-0.465583
-0.456336
-0.445626
-0.433417
-0.419621
-0.404194
-0.387111
-0.368375
-0.348016
-0.326099
-0.302725
-0.278039
-0.252239
-0.225558
-0.198269
-0.170694
-0.143186
-0.116105
-0.0898763
-0.064836
-0.0413239
-0.0197304
-0.000273549
0.0168399
0.0314789
0.0435891
0.0531885
0.0603634
0.0652526
0.0680461
0.0689445
0.0682005
0.0659895
0.0626277
0.0581248
0.0529771
0.0467352
0.0404661
0.0325856
0.0257088
0.0155426
0.00836891
-0.473177
-0.464073
-0.45343
-0.441306
-0.427576
-0.412188
-0.395117
-0.376363
-0.355952
-0.333947
-0.310444
-0.285584
-0.259574
-0.232651
-0.205092
-0.177211
-0.149387
-0.121906
-0.0953017
-0.0698553
-0.0460069
-0.0240455
-0.00423775
0.0132092
0.0281632
0.0405688
0.0504443
0.0578768
0.0630064
0.0660246
0.0671328
0.066585
0.0645574
0.0613657
0.0570235
0.0520209
0.0459239
0.0397742
0.0320388
0.0252503
0.0152726
0.00813964
-0.481994
-0.473115
-0.462561
-0.450571
-0.436961
-0.421665
-0.404655
-0.385925
-0.365498
-0.343435
-0.319829
-0.294803
-0.268585
-0.24142
-0.213583
-0.185365
-0.157231
-0.129069
-0.102131
-0.0762939
-0.0520032
-0.0296031
-0.00936999
0.00848637
0.0238311
0.0366075
0.0468335
0.0545969
0.0600383
0.0633504
0.0647351
0.0644474
0.0626638
0.059699
0.0555712
0.0507627
0.0448585
0.0388688
0.0313251
0.0246559
0.0149232
0.00785145
-0.491191
-0.482629
-0.472206
-0.460407
-0.44699
-0.431859
-0.414983
-0.39635
-0.375978
-0.353933
-0.330317
-0.305136
-0.278776
-0.251416
-0.223244
-0.194559
-0.166001
-0.137678
-0.110208
-0.0838945
-0.059127
-0.0362493
-0.0155446
0.00277239
0.0185633
0.0317693
0.0424072
0.0505645
0.0563814
0.0600511
0.0617751
0.0618084
0.0603275
0.0576451
0.0537841
0.049218
0.0435533
0.0377639
0.0304565
0.0239388
0.0145021
0.00751656
-0.50009
-0.491819
-0.481598
-0.470066
-0.456919
-0.442044
-0.4254
-0.406969
-0.386761
-0.36486
-0.341407
-0.31575
-0.289425
-0.261914
-0.233562
-0.2047
-0.175759
-0.147094
-0.11918
-0.0924091
-0.0671682
-0.0438055
-0.0226121
-0.00380861
0.0124623
0.0261388
0.0372353
0.0458377
0.0520848
0.0561684
0.0582887
0.0586995
0.0575762
0.0552289
0.0516848
0.0474072
0.0420266
0.0364767
0.0294472
0.0231133
0.0140178
0.00714747
-0.508982
-0.499953
-0.490015
-0.478826
-0.466016
-0.451481
-0.435163
-0.417026
-0.397068
-0.375334
-0.351901
-0.326764
-0.300333
-0.27273
-0.244239
-0.215196
-0.185994
-0.157032
-0.128755
-0.101578
-0.0759002
-0.0520763
-0.0304052
-0.0111139
0.00564973
0.0198194
0.0314059
0.040492
0.0472129
0.0517579
0.0543241
0.0551624
0.0544467
0.0524824
0.0493013
0.0453553
0.0403
0.0350266
0.0283131
0.0221948
0.0134791
0.00675586
-0.513827
-0.50668
-0.497004
-0.486143
-0.473801
-0.459726
-0.443842
-0.426118
-0.406539
-0.38513
-0.361953
-0.337103
-0.310808
-0.28328
-0.254794
-0.225689
-0.196349
-0.167187
-0.138641
-0.111141
-0.085092
-0.0608584
-0.038746
-0.0189882
-0.00173944
0.0129286
0.0250212
0.034616
0.0418431
0.0468872
0.0499399
0.0512483
0.0509832
0.0494443
0.046667
0.0430909
0.038398
0.0334348
0.027071
0.0211988
0.0128947
0.00635193
-0.517283
-0.511095
-0.501966
-0.491589
-0.479797
-0.466282
-0.450943
-0.433744
-0.414665
-0.393719
-0.370959
-0.346491
-0.320496
-0.293195
-0.264863
-0.235835
-0.206495
-0.177259
-0.148565
-0.120847
-0.0945184
-0.0699499
-0.0474541
-0.0272714
-0.00956301
0.00559226
0.0181924
0.0283081
0.036062
0.0416319
0.0452025
0.047015
0.0472356
0.0461575
0.0438188
0.0406455
0.0363468
0.0317235
0.0257381
0.0201403
0.012273
0.00594394
-0.518413
-0.513014
-0.504675
-0.49493
-0.483762
-0.470889
-0.45619
-0.43962
-0.421153
-0.40079
-0.37858
-0.354622
-0.329074
-0.302153
-0.27413
-0.245336
-0.216148
-0.186983
-0.158277
-0.130467
-0.103969
-0.0791584
-0.0563547
-0.035805
-0.0176782
-0.00206142
0.0110344
0.0216706
0.0299603
0.0360723
0.0401824
0.0425237
0.0432569
0.0426674
0.0407952
0.0380517
0.0341734
0.0299152
0.0243317
0.0190336
0.0116223
0.00553825
-0.517158
-0.512458
-0.505035
-0.496038
-0.485559
-0.47339
-0.459409
-0.443555
-0.425794
-0.406123
-0.384581
-0.361258
-0.3363
-0.30991
-0.282354
-0.253953
-0.225077
-0.196138
-0.167567
-0.1398
-0.113254
-0.088308
-0.0652849
-0.0444391
-0.0259476
-0.00990721
0.00366039
0.0148055
0.0236292
0.0302894
0.0349507
0.0378366
0.0391007
0.0390198
0.0376352
0.0353421
0.0319045
0.0280317
0.0228685
0.0178919
0.0109501
0.00513936
-0.513655
-0.509545
-0.503099
-0.494916
-0.485162
-0.473738
-0.460532
-0.445463
-0.428485
-0.409593
-0.38882
-0.366248
-0.342009
-0.316295
-0.289358
-0.261507
-0.233103
-0.204546
-0.176262
-0.14868
-0.122214
-0.097245
-0.0740993
-0.0530371
-0.0342441
-0.0178277
-0.003822
0.00781027
0.0171565
0.0243612
0.0295764
0.0330139
0.0348191
0.0352589
0.0343758
0.0325477
0.0295654
0.0260935
0.021364
0.0167269
0.0102631
0.00475025
-0.508116
-0.504457
-0.499
-0.491654
-0.482628
-0.471962
-0.459566
-0.445333
-0.429202
-0.411164
-0.391248
-0.369525
-0.346117
-0.321206
-0.295029
-0.267879
-0.240101
-0.21208
-0.184231
-0.156973
-0.130718
-0.105841
-0.0826734
-0.0614796
-0.0424546
-0.0257171
-0.0113148
0.000774765
0.0106234
0.0183604
0.0241237
0.0281117
0.0304607
0.0314258
0.0310518
0.0296973
0.0271796
0.0241193
0.0198323
0.0155489
0.00956734
0.00437266
-0.500766
-0.497411
-0.492916
-0.486396
-0.478075
-0.468158
-0.456588
-0.443223
-0.427984
-0.410859
-0.391875
-0.371091
-0.348617
-0.32462
-0.299324
-0.273009
-0.245998
-0.218658
-0.191385
-0.164587
-0.138666
-0.113996
-0.0909058
-0.0696669
-0.0504825
-0.0334833
-0.0187317
-0.00622138
0.00410251
0.0123523
0.0186505
0.0231807
0.0260691
0.0275578
0.027694
0.0268166
0.0247677
0.0221256
0.0182858
0.0143664
0.00886811
0.00400742
-0.491805
-0.488621
-0.485044
-0.479314
-0.471657
-0.462467
-0.451724
-0.439246
-0.424932
-0.408766
-0.390775
-0.371005
-0.349554
-0.32657
-0.302264
-0.276895
-0.250774
-0.224243
-0.197675
-0.171461
-0.145992
-0.121634
-0.0987189
-0.0775197
-0.0582491
-0.0410499
-0.0259999
-0.0131101
-0.00234371
0.00639338
0.0132071
0.0182649
0.0216824
0.0236878
0.0243295
0.0239278
0.0223478
0.0201265
0.0167352
0.0131868
0.00816968
0.00365468
-0.481398
-0.478299
-0.475592
-0.470604
-0.463562
-0.455071
-0.44515
-0.433568
-0.420198
-0.405027
-0.388077
-0.369383
-0.349026
-0.327139
-0.303914
-0.279589
-0.254455
-0.228838
-0.203087
-0.177568
-0.152655
-0.128709
-0.106058
-0.0849792
-0.0656935
-0.0483561
-0.0330604
-0.0198354
-0.00866331
0.000530848
0.00783566
0.0134015
0.0173329
0.0198431
0.0209813
0.0210497
0.0199349
0.0181338
0.0151892
0.0120156
0.00747558
0.00331416
-0.469701
-0.466659
-0.464781
-0.460484
-0.454012
-0.446197
-0.437089
-0.426401
-0.413986
-0.399833
-0.383958
-0.366385
-0.347177
-0.326451
-0.304378
-0.281176
-0.25711
-0.232487
-0.207639
-0.182907
-0.158642
-0.135195
-0.112889
-0.0920052
-0.0727719
-0.0553563
-0.0398677
-0.0263534
-0.014815
-0.00519733
0.00257031
0.0086206
0.0130466
0.016046
0.0176685
0.0181975
0.0175413
0.0161571
0.0136549
0.0108574
0.00678856
0.00298536
-0.456902
-0.453941
-0.452857
-0.449197
-0.443262
-0.436108
-0.427801
-0.417998
-0.406536
-0.393412
-0.378633
-0.362208
-0.344184
-0.324661
-0.30379
-0.281765
-0.258829
-0.235263
-0.211379
-0.187504
-0.163962
-0.141087
-0.119197
-0.0985749
-0.0794558
-0.0620189
-0.0463888
-0.0326312
-0.0207673
-0.0107619
-0.00256233
0.00394591
0.00884426
0.0123144
0.0144061
0.0153838
0.0151769
0.014204
0.0121381
0.00971562
0.00611074
0.00266762
-0.443256
-0.44043
-0.440091
-0.437013
-0.431594
-0.425095
-0.417574
-0.408637
-0.398117
-0.386018
-0.372338
-0.357069
-0.340243
-0.321944
-0.302301
-0.281486
-0.259717
-0.23725
-0.214375
-0.191402
-0.16864
-0.146397
-0.124982
-0.104679
-0.0857299
-0.0683242
-0.0526017
-0.038646
-0.0264975
-0.0161413
-0.00754242
-0.000604714
0.00474162
0.00866201
0.0112058
0.0126184
0.0128494
0.0122804
0.0106432
0.00859288
0.00544369
0.00236031
-0.429099
-0.426462
-0.426786
-0.424225
-0.419309
-0.413461
-0.406706
-0.398605
-0.389003
-0.377911
-0.365314
-0.35119
-0.335556
-0.31848
-0.30007
-0.280475
-0.259888
-0.238543
-0.216704
-0.194662
-0.172713
-0.151147
-0.130255
-0.110321
-0.0915897
-0.0742629
-0.0584939
-0.0443835
-0.031991
-0.0213211
-0.0123563
-0.0050187
0.000749964
0.00509869
0.00807625
0.0099087
0.0105646
0.0103907
0.00917344
0.00749107
0.00478851
0.0020629
-0.414808
-0.412401
-0.413259
-0.411127
-0.406703
-0.401501
-0.395479
-0.388174
-0.379455
-0.369339
-0.357794
-0.344785
-0.330318
-0.314444
-0.297251
-0.278866
-0.259459
-0.239238
-0.218445
-0.197349
-0.176232
-0.15537
-0.135039
-0.115512
-0.0970407
-0.0798353
-0.0640619
-0.0498379
-0.0372405
-0.0262932
-0.0169957
-0.00928803
-0.00312315
0.00163139
0.00502354
0.00726012
0.00832725
0.00853832
0.00773131
0.00641159
0.00414598
0.00177492
-0.400765
-0.398612
-0.399822
-0.398007
-0.394057
-0.389487
-0.384153
-0.377591
-0.369711
-0.360526
-0.349989
-0.33805
-0.324709
-0.31
-0.293992
-0.27679
-0.258542
-0.239432
-0.21968
-0.199532
-0.179252
-0.159109
-0.13936
-0.120271
-0.102094
-0.0850466
-0.0693067
-0.055007
-0.0422414
-0.0310519
-0.0214543
-0.0134061
-0.00687124
-0.00173384
0.00205318
0.00467738
0.00614148
0.00672634
0.00631898
0.00535566
0.00351667
0.00149612
-0.387314
-0.385428
-0.386759
-0.385121
-0.381619
-0.37765
-0.372942
-0.367064
-0.359968
-0.35166
-0.342071
-0.331148
-0.318879
-0.305284
-0.290413
-0.274353
-0.257229
-0.239203
-0.220471
-0.201259
-0.181812
-0.162387
-0.143234
-0.124605
-0.106749
-0.0898909
-0.0742192
-0.0598802
-0.0469828
-0.0355863
-0.0257217
-0.0173635
-0.0104861
-0.0049899
-0.000828853
0.00216549
0.0040113
0.004958
0.00493867
0.0043246
0.00290124
0.00122652
-0.374744
-0.373131
-0.374302
-0.372679
-0.369586
-0.366165
-0.362007
-0.356744
-0.350371
-0.342872
-0.334165
-0.324191
-0.31293
-0.300388
-0.286597
-0.271627
-0.255581
-0.238599
-0.220857
-0.202559
-0.183933
-0.165222
-0.146671
-0.128518
-0.111009
-0.0943718
-0.0788031
-0.0644611
-0.0514686
-0.0399006
-0.029802
-0.021164
-0.0139708
-0.00813909
-0.00362408
-0.000276381
0.00193653
0.00323367
0.0035908
0.0033188
0.00229996
0.000966371
-0.363307
-0.361959
-0.362643
-0.360872
-0.358151
-0.355221
-0.351541
-0.346836
-0.341127
-0.334373
-0.326481
-0.317392
-0.307075
-0.295522
-0.282752
-0.268817
-0.2538
-0.237822
-0.221036
-0.203628
-0.185807
-0.167802
-0.14985
-0.132182
-0.115035
-0.0986369
-0.0831916
-0.0688677
-0.0558005
-0.0440804
-0.0337659
-0.0248642
-0.0173696
-0.011215
-0.0063573
-0.00266591
-9.50631e-05
0.00154521
0.00227025
0.00233516
0.00171108
0.000715487
-0.3534
-0.35222
-0.352006
-0.349909
-0.347491
-0.344959
-0.341689
-0.337496
-0.332396
-0.326325
-0.319191
-0.31093
-0.301501
-0.290886
-0.279089
-0.266144
-0.252116
-0.237105
-0.221244
-0.204697
-0.187654
-0.170331
-0.152954
-0.135753
-0.118957
-0.102793
-0.0874696
-0.0731643
-0.0600251
-0.0481574
-0.037633
-0.0284752
-0.0206876
-0.0142195
-0.00902868
-0.0050029
-0.0020836
-0.000108154
0.000975636
0.00137184
0.00113257
0.000473472
-0.345288
-0.34391
-0.341947
-0.338998
-0.336535
-0.33411
-0.331064
-0.32726
-0.322672
-0.317205
-0.31076
-0.303263
-0.294661
-0.284921
-0.274034
-0.26202
-0.248928
-0.234839
-0.219869
-0.204166
-0.187905
-0.171286
-0.154527
-0.137853
-0.12149
-0.105662
-0.0905788
-0.0764204
-0.0633404
-0.051455
-0.0408443
-0.0315457
-0.0235689
-0.0168791
-0.0114337
-0.00713999
-0.00392654
-0.00165922
-0.000251654
0.000451554
0.000574215
0.00024378
-0.335265
-0.338044
-0.334777
-0.331344
-0.328835
-0.32637
-0.323327
-0.319565
-0.315052
-0.309715
-0.30346
-0.29621
-0.287913
-0.278536
-0.26807
-0.256532
-0.243966
-0.230449
-0.216086
-0.201015
-0.185399
-0.169425
-0.153295
-0.137221
-0.121417
-0.106094
-0.0914494
-0.0776586
-0.0648696
-0.0531992
-0.0427265
-0.0334976
-0.0255224
-0.0187818
-0.0132297
-0.00879611
-0.00539603
-0.00292827
-0.00127433
-0.000328451
9.49166e-05
4.91481e-05
-0.320625
-0.325161
-0.322925
-0.319724
-0.31734
-0.315051
-0.312176
-0.308559
-0.30421
-0.299091
-0.293123
-0.286229
-0.278358
-0.269482
-0.259591
-0.248697
-0.236837
-0.224079
-0.210517
-0.196272
-0.181492
-0.166345
-0.151018
-0.135704
-0.120603
-0.105913
-0.0918197
-0.0784924
-0.066075
-0.0546848
-0.0444036
-0.0352849
-0.0273443
-0.0205757
-0.0149359
-0.0103742
-0.0067989
-0.00413757
-0.00224616
-0.00106632
-0.000353727
-0.000135447
-0.307658
-0.312751
-0.31113
-0.308127
-0.305786
-0.303589
-0.300838
-0.297352
-0.293161
-0.288254
-0.282563
-0.276016
-0.268565
-0.260181
-0.250854
-0.240592
-0.229428
-0.217418
-0.204644
-0.191215
-0.177263
-0.162939
-0.148413
-0.133863
-0.119474
-0.10543
-0.0919075
-0.0790673
-0.0670487
-0.0559684
-0.0459096
-0.0369318
-0.029055
-0.0222847
-0.0165807
-0.0119097
-0.00817475
-0.00533019
-0.00320904
-0.00179856
-0.000799238
-0.000318721
-0.296172
-0.300965
-0.299637
-0.296845
-0.294574
-0.292455
-0.289828
-0.286492
-0.282477
-0.27779
-0.272375
-0.266166
-0.259118
-0.251203
-0.242412
-0.232749
-0.222241
-0.210938
-0.198911
-0.186256
-0.17309
-0.159551
-0.145791
-0.131976
-0.118275
-0.104859
-0.0918945
-0.0795344
-0.0679131
-0.0571456
-0.0473157
-0.0384877
-0.0306854
-0.0239249
-0.0181682
-0.0133984
-0.00951371
-0.00649388
-0.00415088
-0.00251478
-0.00123571
-0.000497073
-0.28487
-0.289427
-0.288308
-0.285713
-0.283535
-0.281503
-0.279008
-0.275836
-0.272011
-0.267552
-0.262415
-0.256541
-0.249887
-0.242428
-0.234152
-0.225064
-0.215186
-0.204559
-0.193247
-0.181334
-0.168924
-0.15614
-0.143122
-0.130019
-0.116988
-0.104188
-0.0917735
-0.0798902
-0.0686669
-0.0582166
-0.0486227
-0.0399539
-0.0322366
-0.0254966
-0.0196982
-0.0148397
-0.0108148
-0.00762744
-0.00507056
-0.00321413
-0.00166291
-0.000670212
-0.273771
-0.278185
-0.277211
-0.274769
-0.272682
-0.270741
-0.268376
-0.265372
-0.261744
-0.257517
-0.252657
-0.247113
-0.240844
-0.233825
-0.226047
-0.217513
-0.208239
-0.198261
-0.187634
-0.176433
-0.16475
-0.152695
-0.140393
-0.127982
-0.115604
-0.103406
-0.0915339
-0.0801242
-0.0692998
-0.0591715
-0.0498215
-0.0413217
-0.0337008
-0.0269931
-0.0211648
-0.0162285
-0.0120741
-0.00872774
-0.00596585
-0.00389507
-0.00208012
-0.000837623
-0.263002
-0.26723
-0.266357
-0.264044
-0.262046
-0.260196
-0.257962
-0.255125
-0.251696
-0.247701
-0.243116
-0.237895
-0.232
-0.225408
-0.218109
-0.210105
-0.201409
-0.192052
-0.182081
-0.171561
-0.160575
-0.14922
-0.13761
-0.125867
-0.114124
-0.102516
-0.0911759
-0.0802352
-0.0698096
-0.0600069
-0.0509076
-0.042586
-0.0350724
-0.0284086
-0.0225625
-0.0175596
-0.0132869
-0.00979075
-0.0068336
-0.00455524
-0.002486
-0.000998611
-0.252479
-0.256515
-0.255737
-0.253548
-0.251637
-0.24988
-0.247775
-0.245106
-0.241875
-0.238112
-0.233798
-0.228892
-0.22336
-0.21718
-0.210341
-0.202845
-0.194701
-0.185937
-0.176592
-0.166724
-0.156405
-0.145722
-0.134777
-0.12368
-0.112552
-0.101518
-0.0907012
-0.0802237
-0.0701955
-0.0607209
-0.0518781
-0.0437431
-0.0363471
-0.0297384
-0.0238864
-0.0188282
-0.0144489
-0.0108127
-0.00767072
-0.0051923
-0.00287921
-0.00115263
-0.242176
-0.246039
-0.245356
-0.243289
-0.241466
-0.239802
-0.237825
-0.235321
-0.232287
-0.228753
-0.224704
-0.220106
-0.214924
-0.20914
-0.202743
-0.195733
-0.188117
-0.179918
-0.171171
-0.161925
-0.152244
-0.142205
-0.131898
-0.121424
-0.110893
-0.100417
-0.0901113
-0.0800902
-0.070457
-0.0613119
-0.0527305
-0.0447897
-0.0375209
-0.0309782
-0.0251322
-0.0200302
-0.015556
-0.0117899
-0.00847434
-0.00580413
-0.00325845
-0.00129927
-0.232118
-0.23581
-0.235215
-0.233271
-0.231537
-0.229966
-0.228116
-0.225775
-0.222935
-0.219625
-0.215836
-0.211535
-0.206693
-0.20129
-0.195316
-0.18877
-0.181658
-0.173998
-0.16582
-0.157167
-0.148095
-0.138671
-0.128978
-0.119104
-0.109148
-0.0992143
-0.0894081
-0.0798358
-0.070594
-0.0617789
-0.053463
-0.045723
-0.0385906
-0.0321243
-0.0262959
-0.0211615
-0.0166045
-0.0127192
-0.00924169
-0.0063887
-0.00362244
-0.00143819
-0.222307
-0.225826
-0.225317
-0.223497
-0.221856
-0.220379
-0.218653
-0.216472
-0.213823
-0.210732
-0.207195
-0.203183
-0.198667
-0.193629
-0.18806
-0.181957
-0.175324
-0.168177
-0.160541
-0.152453
-0.143962
-0.135127
-0.12602
-0.116722
-0.107322
-0.0979139
-0.0885944
-0.0794621
-0.0706074
-0.0621217
-0.0540741
-0.046541
-0.0395534
-0.0331733
-0.0273738
-0.0222185
-0.0175909
-0.0135974
-0.00997019
-0.00694414
-0.00396996
-0.00156914
-0.21274
-0.216091
-0.215665
-0.21397
-0.212427
-0.211044
-0.209441
-0.207416
-0.204952
-0.202075
-0.198782
-0.195048
-0.190846
-0.186158
-0.180975
-0.175294
-0.169118
-0.162459
-0.155338
-0.147787
-0.139849
-0.131575
-0.12303
-0.114285
-0.105419
-0.0965194
-0.0876731
-0.0789716
-0.0704985
-0.0623406
-0.0545634
-0.0472421
-0.0404069
-0.0341224
-0.0283628
-0.0231979
-0.018512
-0.0144217
-0.0106574
-0.0074687
-0.00429983
-0.00169187
-0.203424
-0.20661
-0.206264
-0.204696
-0.203252
-0.201964
-0.200482
-0.198609
-0.196326
-0.193656
-0.190599
-0.187132
-0.183231
-0.178877
-0.174062
-0.168783
-0.16304
-0.156844
-0.150213
-0.143172
-0.135759
-0.128021
-0.120011
-0.111795
-0.103444
-0.0950351
-0.086648
-0.0783669
-0.0702691
-0.0624366
-0.0549309
-0.0478254
-0.0411495
-0.0349695
-0.0292602
-0.0240969
-0.0193651
-0.0151896
-0.0113011
-0.0079608
-0.00461095
-0.0018062
-0.194368
-0.19739
-0.197119
-0.195678
-0.194336
-0.193144
-0.191779
-0.190054
-0.187946
-0.185476
-0.182646
-0.179435
-0.175821
-0.171786
-0.167322
-0.162424
-0.157093
-0.151336
-0.145168
-0.138612
-0.131698
-0.124468
-0.11697
-0.10926
-0.101402
-0.0934654
-0.0855229
-0.0776514
-0.0699219
-0.0624113
-0.0551771
-0.0482909
-0.0417803
-0.0357128
-0.0300641
-0.0249131
-0.0201476
-0.0158987
-0.0118993
-0.00841902
-0.00490229
-0.00191199
-0.185577
-0.188435
-0.188236
-0.186922
-0.185683
-0.184585
-0.183335
-0.181753
-0.179814
-0.177537
-0.174924
-0.171958
-0.168618
-0.164886
-0.160755
-0.156218
-0.151277
-0.145936
-0.140207
-0.134109
-0.127669
-0.120922
-0.11391
-0.106683
-0.099297
-0.0918154
-0.0843026
-0.0768291
-0.0694599
-0.0622669
-0.0553036
-0.0486389
-0.0422989
-0.0363514
-0.0307727
-0.0256447
-0.0208575
-0.0165472
-0.0124502
-0.00884214
-0.00517295
-0.00200911
-0.177056
-0.179752
-0.179621
-0.178431
-0.177295
-0.176291
-0.175151
-0.173707
-0.17193
-0.169837
-0.167433
-0.164701
-0.16162
-0.158177
-0.154361
-0.150166
-0.145593
-0.140645
-0.135331
-0.129667
-0.123675
-0.117386
-0.110836
-0.10407
-0.0971356
-0.0900904
-0.0829919
-0.0759044
-0.0688869
-0.0620065
-0.0553123
-0.0488707
-0.0427057
-0.0368849
-0.0313853
-0.0262905
-0.0214934
-0.0171335
-0.0129525
-0.00922914
-0.00542215
-0.00209746
-0.16881
-0.171348
-0.171277
-0.170208
-0.169175
-0.168263
-0.16723
-0.165917
-0.164295
-0.162379
-0.160173
-0.157662
-0.154829
-0.151658
-0.14814
-0.144269
-0.140044
-0.135467
-0.130544
-0.12529
-0.119722
-0.113867
-0.107755
-0.101426
-0.0949234
-0.0882962