/*--------------------------------*- C++ -*----------------------------------*\
  =========                 |
  \\      /  F ield         | OpenFOAM: The Open Source CFD Toolbox
   \\    /   O peration     | Website:  https://openfoam.org
    \\  /    A nd           | Version:  7
     \\/     M anipulation  |
\*---------------------------------------------------------------------------*/
FoamFile
{
    version     2.0;
    format      ascii;
    class       surfaceScalarField;
    location    "5";
    object      phi;
}
// * * * * * * * * * * * * * * * * * * * * * * * * * * * * * * * * * * * * * //

dimensions      [0 3 -1 0 0 0 0];

internalField   nonuniform List<scalar> 
16429
(
-4.93068e-05
4.93172e-05
-1.04473e-08
-0.000147568
9.82776e-05
-1.65125e-08
-0.000278021
0.00013047
-1.77523e-08
-0.000431936
0.000153933
-1.73757e-08
-0.000606877
0.000174956
-1.61582e-08
-0.000801783
0.00019492
-1.33197e-08
-0.00101507
0.000213298
-7.73007e-09
-0.00124335
0.000228279
1.73372e-09
-0.00148101
0.000237635
1.59382e-08
-0.00171977
0.000238727
3.53322e-08
-0.00194876
0.000228931
5.96299e-08
-0.00215315
0.000204303
8.76235e-08
-0.00232102
0.000167752
1.16939e-07
9.70945e-05
1.44064e-07
-0.00241826
-4.82166e-05
9.75339e-05
-0.000144691
0.000194752
-0.000272926
0.000258706
-0.000424132
0.000305139
-0.000595644
0.000346469
-0.000786157
0.000385433
-0.000993839
0.00042098
-0.00121504
0.000449481
-0.00144388
0.000466475
-0.00167178
0.000466631
-0.00188772
0.000444864
-0.00207594
0.000392521
-0.00222597
0.00031779
0.000171682
-0.00230056
-4.60743e-05
0.000143608
-0.000139021
0.000287699
-0.000262874
0.000382559
-0.000408729
0.000450994
-0.000573483
0.000511223
-0.000755352
0.000567302
-0.000952027
0.000617655
-0.00115938
0.000656834
-0.00137105
0.000678148
-0.00157792
0.000673494
-0.00176882
0.000635763
-0.00192629
0.000549993
-0.00204285
0.000434355
0.000204331
-0.0020755
-4.29539e-05
0.000186562
-0.000130728
0.000375472
-0.000248135
0.000499967
-0.000386128
0.000588987
-0.000540987
0.000666082
-0.000710242
0.000736557
-0.000890917
0.00079833
-0.00107823
0.00084415
-0.00126524
0.000865156
-0.00144211
0.000850363
-0.00159789
0.000791543
-0.00171281
0.000664911
-0.00178389
0.000505434
0.000181409
-0.00176097
-3.89634e-05
0.000225525
-0.000120054
0.000456563
-0.000229103
0.000609016
-0.000356918
0.000716802
-0.000499017
0.000808181
-0.000652087
0.000889627
-0.000812339
0.000958583
-0.000974241
0.00100605
-0.00113023
0.00102115
-0.00126974
0.000989874
-0.00138259
0.000904386
-0.0014465
0.000728821
-0.00146402
0.00052296
9.57588e-05
-0.00137837
-3.42398e-05
0.000259765
-0.000107314
0.000529637
-0.000206286
0.000707987
-0.000321851
0.000832367
-0.000448674
0.000935004
-0.000582482
0.00102344
-0.000718593
0.00109469
-0.000850678
0.00113814
-0.000970649
0.00114112
-0.00106723
0.00108646
-0.00113161
0.000968766
-0.00113951
0.000736714
-0.00109864
0.00048209
-5.36436e-05
-0.000949235
-2.89446e-05
0.00028871
-9.28849e-05
0.000593578
-0.000180294
0.000795396
-0.000281827
0.000933899
-0.000391258
0.00104444
-0.000503299
0.00113548
-0.000612346
0.00120374
-0.000711302
0.00123709
-0.00079171
0.00122153
-0.000841727
0.00113648
-0.000854244
0.000981282
-0.000804421
0.000686892
-0.000702453
0.000380122
-0.000263178
-0.000492918
-2.32568e-05
0.000311967
-7.71888e-05
0.00064751
-0.00015182
0.000870027
-0.000237865
0.00101994
-0.000328231
0.0011348
-0.000416615
0.00122386
-0.000496524
0.00128365
-0.000560189
0.00130076
-0.000598991
0.00126033
-0.000600811
0.0011383
-0.000559964
0.000940435
-0.000454192
0.000581119
-0.000288346
0.000214277
-0.000521412
-3.01124e-05
-1.73663e-05
0.000329333
-6.06853e-05
0.000690828
-0.000121622
0.000930964
-0.000191078
0.0010894
-0.00026117
0.00120489
-0.000324646
0.00128734
-0.000374209
0.00133321
-0.000401576
0.00132812
-0.000398203
0.00125695
-0.000352252
0.00109234
-0.00025786
0.000846043
-0.000103796
0.000427055
0.000125501
-1.50209e-05
-0.000836604
0.000440694
-1.14662e-05
0.000340799
-4.38543e-05
0.000723217
-9.05024e-05
0.000977612
-0.00014264
0.00114154
-0.00019173
0.00125398
-0.000229681
0.00132529
-0.000248534
0.00135207
-0.000239705
0.0013193
-0.000194922
0.00121217
-0.000104154
0.00100158
4.451e-05
0.000697379
0.000247248
0.000224317
0.000517427
-0.0002852
-0.00121065
0.000891474
-5.74524e-06
0.000346544
-2.71799e-05
0.000744651
-5.9285e-05
0.00100972
-9.37619e-05
0.00117601
-0.000121594
0.00128182
-0.000134021
0.00133772
-0.000122587
0.00134063
-7.87439e-05
0.00127545
6.16334e-06
0.00112726
0.000138692
0.000869048
0.000330314
0.000505758
0.00058262
-2.79887e-05
0.000892797
-0.000595378
-0.00163612
0.00131826
-3.92724e-07
0.000346937
-1.11311e-05
0.00075539
-2.87914e-05
0.00102738
-4.56569e-05
0.00119288
-5.24409e-05
0.0012886
-3.99301e-05
0.0013252
5.27717e-07
0.00130017
7.76117e-05
0.00119837
0.000198802
0.00100607
0.000370144
0.000697706
0.000601414
0.000274488
0.000893824
-0.000320398
0.00124367
-0.00094522
-0.00210991
0.00171746
4.479e-06
0.000342458
3.84101e-06
0.000756028
1.50485e-07
0.00103107
4.77919e-07
0.00119255
1.41004e-05
0.00127498
5.04847e-05
0.00128882
0.000118466
0.00123219
0.000225977
0.00109086
0.000380257
0.000851794
0.00058477
0.000493193
0.000851237
8.02088e-06
0.00117849
-0.000647647
0.00156934
-0.00133608
-0.00263006
0.00208949
8.68571e-06
0.000333772
1.73257e-05
0.000747388
2.69077e-05
0.00102149
4.3577e-05
0.00117588
7.6533e-05
0.00124202
0.000135216
0.00123014
0.000228324
0.00113908
0.000363202
0.00095598
0.000546807
0.000668189
0.000780132
0.000259869
0.00107784
-0.000289683
0.00143744
-0.00100725
0.00187363
-0.00177228
-0.00319398
0.00243756
1.21478e-05
0.000321625
2.9027e-05
0.000730508
5.07266e-05
0.000999787
8.25889e-05
0.00114402
0.000133447
0.00119116
0.000212503
0.00115108
0.000328169
0.00102342
0.000487095
0.000797054
0.000696296
0.000458988
0.000955507
6.57389e-07
0.00128228
-0.000616454
0.00167544
-0.00140041
0.00216285
-0.00225969
-0.00379626
0.00276513
1.47945e-05
0.00030683
3.86673e-05
0.000706636
7.11111e-05
0.000967343
0.000116685
0.00109845
0.000183701
0.00112415
0.000280945
0.00105384
0.000416465
0.000887897
0.000596343
0.000617176
0.000827988
0.000227344
0.00111228
-0.000283635
0.00146893
-0.000973101
0.00190032
-0.0018318
0.00244316
-0.00280253
-0.0044266
0.0030735
1.65916e-05
0.000290238
4.60801e-05
0.000677147
8.76752e-05
0.000925748
0.000145232
0.00104089
0.000226446
0.00104293
0.000339594
0.000940689
0.000492413
0.000735078
0.000690851
0.000418738
0.000943368
-2.51729e-05
0.00125411
-0.00059438
0.00164473
-0.00136371
0.0021207
-0.00230778
0.00271753
-0.00339936
-0.0050694
0.00336033
1.75406e-05
0.000272698
5.11977e-05
0.00064349
0.000100209
0.000876736
0.000167866
0.000973233
0.000261233
0.000949567
0.000388114
0.000813808
0.000556184
0.000567008
0.000772018
0.000202904
0.00104592
-0.000299071
0.00138734
-0.000935802
0.00181793
-0.00179431
0.00234296
-0.00283281
0.00298374
-0.00404013
-0.00570556
0.0036199
1.76779e-05
0.00025502
5.40571e-05
0.000607111
0.000108704
0.00082209
0.000184543
0.000897394
0.000288111
0.000845999
0.000426943
0.000674976
0.000609139
0.000384812
0.000842964
-3.09209e-05
0.00114132
-0.000597422
0.00151967
-0.00131416
0.00199582
-0.00227045
0.00256849
-0.00340548
0.00323432
-0.00470597
-0.00631598
0.00384474
1.70731e-05
0.000237947
5.48026e-05
0.000569381
0.000113367
0.000763525
0.000195591
0.00081517
0.000307714
0.000733876
0.000457424
0.000525266
0.000653965
0.000188271
0.000908446
-0.000285402
0.00123672
-0.000925694
0.00165856
-0.001736
0.00218204
-0.00279393
0.00279257
-0.00401601
0.00345892
-0.00537232
-0.00688506
0.00402801
1.58262e-05
5.36833e-05
0.000531524
0.000114632
0.000702576
0.000201732
0.000728071
0.000321317
0.00061429
0.000481861
0.000364722
0.00069463
-2.44975e-05
0.000974421
-0.000565193
0.00133933
-0.00129061
0.00180887
-0.00220554
0.00237483
-0.00335989
0.00300568
-0.00464686
0.00364765
-0.00601429
-0.00740295
0.00416553
5.10454e-05
0.000494543
0.000113151
0.00064047
0.000204086
0.000637136
0.000330832
0.000487544
0.000503441
0.000192114
0.00073603
-0.000257087
0.00104714
-0.000876299
0.00145465
-0.00169812
0.00197102
-0.0027219
0.00256707
-0.00395595
0.00319648
-0.00527627
0.00379379
-0.0066116
-0.00786591
0.00425675
4.73198e-05
0.00045916
0.000109772
0.000578019
0.00020413
0.000542777
0.000338707
0.000352967
0.000525978
4.84332e-06
0.000783361
-0.00051447
0.00113184
-0.00122477
0.00158474
-0.00215102
0.00214037
-0.00327754
0.00274848
-0.00456406
0.00335523
-0.00588302
0.00389496
-0.00715133
-0.0082754
0.00430445
4.30007e-05
0.000425768
0.000105493
0.000515526
0.000203607
0.000444663
0.000347738
0.000208836
0.000553486
-0.000200904
0.000841248
-0.000802232
0.00123146
-0.00161499
0.00172737
-0.00264693
0.00230839
-0.00385855
0.00290861
-0.00516428
0.00347591
-0.00645032
0.00395265
-0.00762807
-0.0086365
0.00431376
3.86196e-05
0.000101403
0.000452743
0.000204397
0.000341669
0.000360797
5.24357e-05
0.000589619
-0.000429727
0.000912822
-0.00112544
0.00134572
-0.00204789
0.00187642
-0.00317763
0.00246508
-0.00444722
0.00303952
-0.00573871
0.00355677
-0.00696757
0.00397111
-0.0080424
-0.00895629
0.00429089
9.85994e-05
0.000388856
0.000208346
0.000231922
0.000380499
-0.000119717
0.000637121
-0.000686349
0.000998991
-0.00148731
0.00147097
-0.00251986
0.00202337
-0.00373003
0.00260154
-0.00502539
0.00313704
-0.00627421
0.00359945
-0.00742998
0.00395604
-0.00839899
-0.00924214
0.00424188
9.81049e-05
0.000322534
0.000217099
0.000112928
0.000408893
-0.000311512
0.000697343
-0.000974799
0.00109813
-0.0018881
0.00160099
-0.00302272
0.00215948
-0.00428852
0.00271167
-0.00557758
0.00320065
-0.00676319
0.00360782
-0.00783715
0.00391327
-0.00870444
-0.00950116
0.00417229
0.000100784
0.000252017
0.00023194
-1.82276e-05
0.000447213
-0.000526785
0.000769987
-0.00129757
0.00120634
-0.00232445
0.00172839
-0.00354476
0.00227751
-0.00483765
0.00279265
-0.00609272
0.00323248
-0.00720302
0.00358718
-0.00819186
0.00384721
-0.00896447
-0.00974502
0.00409108
0.000107285
0.000253691
-0.000164634
0.00049573
-0.000768824
0.000853111
-0.00165495
0.00131819
-0.00278953
0.00184609
-0.00407266
0.00237276
-0.00536432
0.00284447
-0.00656442
0.00323586
-0.00759441
0.00354408
-0.00850008
0.00377763
-0.00919803
-0.00994331
0.00397593
0.000282657
-0.000329292
0.000553727
-0.00103989
0.000943426
-0.00204465
0.00142774
-0.00327385
0.00194853
-0.00459346
0.00244313
-0.00585891
0.00286905
-0.00699034
0.00321471
-0.00794007
0.00348269
-0.00876805
0.00369911
-0.00941445
-0.010117
0.00387283
0.000318641
0.000619597
-0.00134085
0.0010368
-0.00246185
0.00152951
-0.00376656
0.00203208
-0.00509603
0.00248867
-0.0063155
0.00286935
-0.00737102
0.00317336
-0.00824409
0.00340936
-0.00900405
0.0036039
-0.00960899
-0.0102769
0.00376378
0.000691024
-0.00167088
0.00112885
-0.00289968
0.00161918
-0.00425688
0.00209507
-0.00557192
0.00251089
-0.00673132
0.00284877
-0.00770889
0.00311616
-0.00851149
0.00332521
-0.00921309
0.00350323
-0.00978701
-0.0104268
0.00365308
0.00076525
-0.00202745
0.00121554
-0.00334998
0.00169384
-0.00473518
0.00213741
-0.00601549
0.00251216
-0.00710607
0.0028108
-0.00800754
0.00304647
-0.00874716
0.00323359
-0.00940021
0.00339718
-0.00995061
-0.0105676
0.00353802
0.000839361
0.00129353
-0.00380415
0.001752
-0.00519365
0.00216009
-0.00642358
0.0024952
-0.00744117
0.00275868
-0.00827102
0.00296729
-0.00895578
0.0031362
-0.00956912
0.00328781
-0.0101022
-0.0107013
0.00342149
0.00136042
-0.00425401
0.00179331
-0.00562654
0.0021648
-0.00679507
0.00246278
-0.00773914
0.00269526
-0.0085035
0.00288093
-0.00914145
0.00303472
-0.00972291
0.00317603
-0.0102435
-0.0108284
0.0033031
0.00141474
0.00181826
-0.00603006
0.00215356
-0.00713037
0.00241753
-0.00800311
0.002623
-0.00870897
0.00278926
-0.00930771
0.00293028
-0.00986393
0.00306254
-0.0103758
-0.0109494
0.00318355
0.00182793
0.0021285
-0.00743094
0.00236183
-0.00823644
0.00254392
-0.00889107
0.00269369
-0.00945747
0.00282373
-0.00999396
0.0029478
-0.0104999
-0.0110645
0.00306291
0.0020917
-0.00769893
0.00229775
-0.0084425
0.00245967
-0.00905299
0.00259531
-0.00959311
0.00271567
-0.0101143
0.00283212
-0.0106163
-0.0111737
0.00294138
0.00204509
0.00222705
-0.00862446
0.00237155
-0.00919749
0.00249492
-0.00971649
0.00260655
-0.0102259
0.00271571
-0.0107255
-0.0112771
0.00281904
0.00215121
0.00228057
-0.00932685
0.00239311
-0.00982903
0.00249665
-0.0103295
0.00259871
-0.0108275
-0.0113744
0.00269599
0.00218752
0.00229031
-0.00993182
0.00238619
-0.0104254
0.00248123
-0.0109226
-0.0114654
0.0025723
0.00218684
0.00227532
-0.0105138
0.00236335
-0.0110106
-0.0115501
0.00244802
0.00216415
0.00224513
-0.0110916
-0.0116282
0.00232322
0.00212664
-0.0116995
0.00219796
0.0020723
0.0116995
0.00207234
0.00205284
0.0105952
0.00212671
0.0110917
0.0116282
0.002198
0.00208298
0.0100258
0.00216423
0.010514
0.00224521
0.0110107
0.0115501
0.00232327
0.00218691
0.00993193
0.0022754
0.0104255
0.00236343
0.0109227
0.0114655
0.00244808
0.0021876
0.00932701
0.00229039
0.00982914
0.00238627
0.0103296
0.00248131
0.0108276
0.0113744
0.00257236
0.0021513
0.0086247
0.00228065
0.00919765
0.00239319
0.0097166
0.00249673
0.0102261
0.0025988
0.0107256
0.0112771
0.00269606
0.0020452
0.00769926
0.00222715
0.00844275
0.00237164
0.00905317
0.002495
0.00959323
0.00260663
0.0101144
0.0027158
0.0106164
0.0111738
0.00281912
0.00209181
0.00743128
0.00229785
0.00823671
0.00245976
0.00889126
0.0025954
0.0094576
0.00271576
0.00999407
0.00283221
0.0105
0.0110646
0.00294146
0.00182805
0.00603041
0.00212862
0.00713071
0.00236194
0.00800339
0.00254402
0.00870918
0.00269378
0.00930784
0.00282381
0.00986403
0.00294789
0.0103759
0.0109495
0.00306299
0.00141484
0.00425428
0.00181838
0.00562687
0.00215369
0.00679541
0.00241764
0.00773943
0.0026231
0.00850372
0.00278935
0.00914159
0.00293037
0.00972302
0.00306263
0.0102436
0.0108285
0.00318364
0.00136052
0.00380439
0.00179343
0.00519396
0.00216493
0.00642391
0.0024629
0.00744147
0.00269537
0.00827125
0.00288103
0.00895593
0.00303481
0.00956923
0.00317613
0.0101023
0.0107014
0.0033032
0.000839418
0.00202755
0.00129363
0.00335018
0.00175212
0.00473546
0.00216022
0.00601581
0.00249532
0.00710637
0.00275879
0.00800778
0.00296739
0.00874733
0.0031363
0.00940033
0.0032879
0.0099507
0.0105677
0.00342159
0.000765297
0.00167095
0.00121563
0.00289985
0.00169396
0.00425713
0.00213754
0.00557223
0.00251229
0.00673162
0.00281092
0.00770915
0.00304658
0.00851168
0.00323369
0.00921322
0.00339728
0.00978711
0.0104269
0.00353812
0.000361006
0.000514856
0.000691062
0.00134089
0.00112893
0.00246198
0.00161928
0.00376678
0.0020952
0.00509631
0.00251103
0.00631579
0.00284889
0.00737128
0.00311628
0.00824429
0.00332531
0.00900419
0.00350333
0.00960909
0.010277
0.00365318
0.000318649
0.00032927
0.000619626
0.00103992
0.00103686
0.00204475
0.00152961
0.00327403
0.0020322
0.00459371
0.0024888
0.0058592
0.00286948
0.00699061
0.00317348
0.00794029
0.00340946
0.0087682
0.003604
0.00941456
0.0101171
0.00376388
0.000282661
0.000164605
0.000553748
0.00076883
0.000943476
0.00165502
0.00142782
0.00278968
0.00194865
0.00407289
0.00244326
0.00536458
0.00286918
0.00656469
0.00321484
0.00759463
0.0034828
0.00850025
0.00369921
0.00919814
0.00994341
0.00387293
0.000107281
-0.000252058
0.000253691
1.81952e-05
0.000495743
0.000526779
0.000853149
0.00129762
0.00131827
0.00232457
0.0018462
0.00354495
0.00237289
0.00483789
0.00284461
0.00609297
0.00323599
0.00720325
0.00354419
0.00819204
0.00377774
0.00896459
0.00974512
0.00397603
0.00010078
-0.000322573
0.000231938
-0.000112963
0.00044722
0.000311496
0.000770014
0.000974822
0.0012064
0.00188818
0.00172848
0.00302287
0.00227764
0.00428873
0.00279279
0.00557782
0.00323261
0.00676342
0.00358731
0.00783735
0.00384732
0.00870458
0.00950126
0.00409118
9.80993e-05
-0.000388893
0.000217094
-0.000231957
0.000408895
0.000119695
0.000697361
0.000686356
0.00109818
0.00148736
0.00160107
0.00251998
0.00215959
0.00373021
0.0027118
0.00502561
0.00320079
0.00627444
0.00360795
0.00743019
0.00391339
0.00839914
0.00924225
0.00417241
3.47084e-05
-0.000394433
9.85933e-05
-0.000452778
0.000208339
-0.000341704
0.000380496
-5.24615e-05
0.00063713
0.000429722
0.000999023
0.00112547
0.00147103
0.00204797
0.00202347
0.00317777
0.00260167
0.00444741
0.00313718
0.00573892
0.00359959
0.00696777
0.00395617
0.00804257
0.00895641
0.00424201
3.86158e-05
-0.000425793
0.000101396
-0.000515559
0.000204389
-0.000444696
0.000360791
-0.000208864
0.000589621
0.000200891
0.000912842
0.000802246
0.00134577
0.00161504
0.0018765
0.00264704
0.0024652
0.00385871
0.00303966
0.00516447
0.00355691
0.00645052
0.00397124
0.00762824
0.00863663
0.00429102
4.29968e-05
-0.000459182
0.000105486
-0.000578048
0.000203598
-0.000542809
0.00034773
-0.000352995
0.000553482
-4.86148e-06
0.000841258
0.000514471
0.0012315
0.00122481
0.00172744
0.00215109
0.00230849
0.00327766
0.00290874
0.00456422
0.00347606
0.0058832
0.0039528
0.0071515
0.00827553
0.0043139
4.73158e-05
-0.000494562
0.000109765
-0.000640497
0.00020412
-0.000637164
0.000338697
-0.000487571
0.000525971
-0.000192135
0.000783363
0.000257078
0.00113186
0.000876311
0.00158479
0.00169817
0.00214045
0.00272199
0.0027486
0.00395607
0.00335537
0.00527642
0.00389511
0.00661176
0.00786604
0.0043046
5.10414e-05
-0.000531541
0.000113144
-0.000702599
0.000204076
-0.000728096
0.000330821
-0.000614316
0.000503431
-0.000364745
0.000736026
2.44826e-05
0.00104715
0.000565192
0.00145468
0.00129063
0.00197108
0.00220559
0.00256718
0.00335998
0.00319662
0.00464698
0.00379394
0.00601444
0.00740308
0.00425691
1.58249e-05
-0.000237952
5.36792e-05
-0.000569395
0.000114625
-0.000763545
0.000201721
-0.000815193
0.000321305
-0.0007339
0.000481849
-0.000525289
0.000694621
-0.00018829
0.000974423
0.000285391
0.00133936
0.000925697
0.00180892
0.00173603
0.00237491
0.00279399
0.0030058
0.00401609
0.0036478
0.00537244
0.00688518
0.0041657
1.70718e-05
-0.000255024
5.47985e-05
-0.000607122
0.00011336
-0.000822106
0.00019558
-0.000897413
0.0003077
-0.000846021
0.00045741
-0.000674998
0.000653954
-0.000384834
0.000908442
3.0902e-05
0.00123673
0.00059741
0.00165859
0.00131416
0.00218211
0.00227047
0.00279268
0.00340553
0.00345907
0.00470604
0.00631608
0.00402817
1.76765e-05
-0.000272701
5.40529e-05
-0.000643498
0.000108696
-0.000876749
0.000184532
-0.000973249
0.000288097
-0.000949586
0.000426928
-0.000813829
0.000609126
-0.000567031
0.000842956
-0.000202928
0.00114132
0.000299048
0.0015197
0.000935782
0.00199587
0.0017943
0.00256857
0.00283282
0.00323445
0.00404017
0.00570564
0.0038449
1.75391e-05
-0.00029024
5.11933e-05
-0.000677152
0.000100201
-0.000925757
0.000167855
-0.0010409
0.000261219
-0.00104295
0.000388099
-0.000940709
0.000556169
-0.000735102
0.000772007
-0.000418765
0.00104591
2.51411e-05
0.00138735
0.000594345
0.00181797
0.00136368
0.00234303
0.00230776
0.00298385
0.00339935
0.00506944
0.00362005
1.65901e-05
-0.00030683
4.60756e-05
-0.000706638
8.76672e-05
-0.000967349
0.000145221
-0.00109846
0.000226431
-0.00112416
0.000339577
-0.00105385
0.000492397
-0.000887921
0.000690838
-0.000617207
0.000943362
-0.000227383
0.00125412
0.000283587
0.00164475
0.000973052
0.00212075
0.00183176
0.00271763
0.00280248
0.0044266
0.00336046
1.4793e-05
-0.000321623
3.86627e-05
-0.000730508
7.11029e-05
-0.000999789
0.000116673
-0.00114403
0.000183686
-0.00119117
0.000280928
-0.0011511
0.000416447
-0.00102344
0.000596328
-0.000797087
0.000827978
-0.000459033
0.00111228
-7.15857e-07
0.00146894
0.000616388
0.00190036
0.00140034
0.00244323
0.0022596
0.00379622
0.00307361
1.21462e-05
-0.000333769
2.90223e-05
-0.000747384
5.07183e-05
-0.00102148
8.2577e-05
-0.00117588
0.000133432
-0.00124203
0.000212485
-0.00123015
0.00032815
-0.00113911
0.000487077
-0.000956014
0.000696283
-0.000668238
0.000955502
-0.000259935
0.00128229
0.000289602
0.00167547
0.00100716
0.00216291
0.00177216
0.0031939
0.00276523
8.68402e-06
-0.000342453
1.73209e-05
-0.000756021
2.68994e-05
-0.00103106
4.35649e-05
-0.00119255
7.65174e-05
-0.00127498
0.000135197
-0.00128883
0.000228304
-0.00123221
0.000363183
-0.00109089
0.000546791
-0.000851846
0.000780123
-0.000493267
0.00107784
-8.11488e-06
0.00143746
0.000647539
0.00187368
0.00133594
0.00262994
0.00243765
4.47728e-06
-0.00034693
3.83623e-06
-0.00075538
1.4158e-07
-0.00102737
4.65651e-07
-0.00119287
1.40847e-05
-0.0012886
5.04659e-05
-0.00132521
0.000118446
-0.00130019
0.000225956
-0.0011984
0.000380239
-0.00100613
0.000584757
-0.000697786
0.000851235
-0.000274593
0.0011785
0.000320274
0.00156938
0.000945058
0.00210975
0.00208956
-3.94438e-07
-0.000346536
-1.11359e-05
-0.000744638
-2.87996e-05
-0.0010097
-4.56689e-05
-0.00117601
-5.24566e-05
-0.00128181
-3.99491e-05
-0.00133772
5.05128e-07
-0.00134065
7.7589e-05
-0.00127549
0.000198781
-0.00112732
0.000370127
-0.000869132
0.000601407
-0.000505872
0.000893831
2.78494e-05
0.00124369
0.000595197
0.00163593
0.00171751
-5.74699e-06
-0.000340789
-2.71846e-05
-0.000723201
-5.92931e-05
-0.000977597
-9.37736e-05
-0.00114152
-0.00012161
-0.00125398
-0.00013404
-0.00132529
-0.000122609
-0.00135208
-7.87678e-05
-0.00131933
6.14017e-06
-0.00121223
0.000138671
-0.00100166
0.0003303
-0.000697501
0.000582619
-0.000224469
0.000892814
0.000285002
0.00121044
0.0013183
-1.14679e-05
-0.000329321
-4.38588e-05
-0.00069081
-9.05102e-05
-0.000930945
-0.000142651
-0.00108938
-0.000191745
-0.00120488
-0.0002297
-0.00128733
-0.000248556
-0.00133322
-0.00023973
-0.00132815
-0.000194948
-0.00125701
-0.000104178
-0.00109243
4.44918e-05
-0.000846172
0.00024724
-0.000427217
0.000517434
1.48083e-05
0.000836376
0.000891502
-1.73679e-05
-0.000311953
-6.06896e-05
-0.000647488
-0.00012163
-0.000870005
-0.000191088
-0.00101992
-0.000261185
-0.00113479
-0.000324664
-0.00122385
-0.000374231
-0.00128366
-0.000401602
-0.00130078
-0.00039823
-0.00126038
-0.000352279
-0.00113839
-0.000257884
-0.000940566
-0.000103811
-0.00058129
0.000125497
-0.0002145
0.000521166
0.000440708
-2.32583e-05
-0.000288695
-7.71928e-05
-0.000593554
-0.000151827
-0.000795371
-0.000237875
-0.000933877
-0.000328244
-0.00104442
-0.000416633
-0.00113547
-0.000496545
-0.00120374
-0.000560214
-0.00123712
-0.000599019
-0.00122158
-0.00060084
-0.00113656
-0.000559992
-0.000981414
-0.000454213
-0.000687069
-0.00028836
-0.000380353
0.000262918
-3.01123e-05
-2.8946e-05
-0.000259749
-9.28886e-05
-0.000529611
-0.0001803
-0.000707959
-0.000281836
-0.000832341
-0.00039127
-0.000934982
-0.000503315
-0.00102342
-0.000612366
-0.00109469
-0.000711326
-0.00113816
-0.000791737
-0.00114117
-0.000841757
-0.00108654
-0.000854274
-0.000968897
-0.000804448
-0.000736895
-0.000702475
-0.000482326
5.33716e-05
-0.000492929
-3.42411e-05
-0.000225508
-0.000107318
-0.000456534
-0.000206291
-0.000608986
-0.000321859
-0.000716773
-0.000448685
-0.000808156
-0.000582497
-0.000889609
-0.000718612
-0.000958577
-0.0008507
-0.00100607
-0.000970675
-0.00102119
-0.00106726
-0.000989956
-0.00113165
-0.000904516
-0.00113954
-0.000729003
-0.00109866
-0.000523198
-9.60393e-05
-0.000949254
-3.89645e-05
-0.000186543
-0.000120056
-0.000375442
-0.000229107
-0.000499935
-0.000356924
-0.000588956
-0.000499027
-0.000666054
-0.000652099
-0.000736536
-0.000812355
-0.000798321
-0.00097426
-0.000844161
-0.00113026
-0.000865196
-0.00126977
-0.000850442
-0.00138261
-0.00079167
-0.00144653
-0.000665092
-0.00146405
-0.000505671
-0.000181695
-0.0013784
-4.29548e-05
-0.000143588
-0.00013073
-0.000287667
-0.000248139
-0.000382526
-0.000386134
-0.000450961
-0.000540995
-0.000511194
-0.000710252
-0.000567278
-0.00089093
-0.000617644
-0.00107825
-0.000656842
-0.00126526
-0.000678185
-0.00144213
-0.00067357
-0.00159792
-0.000635887
-0.00171284
-0.000550172
-0.00178391
-0.000434592
-0.000204619
-0.00176099
-4.60749e-05
-9.75135e-05
-0.000139023
-0.000194719
-0.000262877
-0.000258671
-0.000408733
-0.000305105
-0.000573489
-0.000346437
-0.00075536
-0.000385408
-0.000952037
-0.000420967
-0.00115939
-0.000449486
-0.00137107
-0.000466509
-0.00157793
-0.000466704
-0.00176884
-0.000444985
-0.00192631
-0.000392699
-0.00204288
-0.000318025
-0.00017197
-0.00207552
-4.8217e-05
-4.92965e-05
-0.000144692
-9.82447e-05
-0.000272928
-0.000130435
-0.000424135
-0.000153899
-0.000595648
-0.000174924
-0.000786162
-0.000194894
-0.000993845
-0.000213283
-0.00121505
-0.000228283
-0.00144389
-0.000237668
-0.00167179
-0.000238798
-0.00188773
-0.00022905
-0.00207595
-0.000204479
-0.00222599
-0.000167986
-9.73829e-05
-0.00230058
-4.93069e-05
-0.000147568
-0.000278021
-0.000431937
-0.000606878
-0.000801785
-0.00101508
-0.00124336
-0.00148101
-0.00171977
-0.00194876
-0.00215315
-0.00232102
-0.00241826
-0.00239142
-2.68822e-05
4.16019e-08
-0.00235803
-3.34259e-05
4.37199e-08
-0.00231739
-4.06843e-05
4.57253e-08
-0.00226898
-4.84598e-05
4.75469e-08
-0.00221229
-5.67421e-05
4.91206e-08
-0.00214683
-6.55098e-05
5.03782e-08
-0.00207215
-7.47325e-05
5.12475e-08
-0.00198783
-8.43706e-05
5.16523e-08
-0.00189351
-9.43718e-05
5.15143e-08
-0.00178889
-0.00010467
5.07548e-08
-0.00167376
-0.000115179
4.92987e-08
-0.00154801
-0.000125796
4.70767e-08
-0.00141166
-0.000136396
4.40271e-08
-0.00126486
-0.000146842
4.01063e-08
-0.00110792
-0.000156977
3.52917e-08
-0.000941339
-0.000166607
2.95873e-08
-0.000765785
-0.000175577
2.30315e-08
-0.000582121
-0.00018368
1.56969e-08
-0.000391371
-0.000190757
7.64539e-09
-0.000194793
-0.000196577
-9.10502e-10
6.28155e-06
-0.000201065
-9.85761e-09
0.000210332
-0.000204032
-1.89703e-08
0.000415816
-0.000205456
-2.8035e-08
0.000621156
-0.000205303
-3.6823e-08
0.000824787
-0.000203586
-4.51012e-08
0.00102521
-0.00020037
-5.26485e-08
0.00122104
-0.000195766
-5.92651e-08
0.00141103
-0.000189925
-6.47822e-08
0.00159412
-0.000183031
-6.90722e-08
0.00176947
-0.000175276
-7.20514e-08
0.00193645
-0.000166902
-7.36975e-08
0.00209457
-0.000158048
-7.40236e-08
0.00224372
-0.000149077
-7.31431e-08
0.00238366
-0.000139864
-7.11161e-08
0.00251495
-0.000131223
-6.82542e-08
0.00263716
-0.000122148
-6.45008e-08
0.00275205
-0.000114828
-6.05583e-08
0.0028581
-0.000105992
-5.58221e-08
0.00295928
-0.000101132
-5.19727e-08
0.00305165
-9.23237e-05
-4.68556e-08
0.00314284
-9.11393e-05
-4.45942e-08
-8.27059e-05
-3.90459e-08
-0.00227393
-5.3514e-05
-0.002241
-6.63502e-05
-0.00220097
-8.07189e-05
-0.0021533
-9.61259e-05
-0.00209751
-0.000112541
-0.00203309
-0.000129922
-0.00195962
-0.000148208
-0.00187667
-0.000167321
-0.00178388
-0.000187156
-0.00168097
-0.000207583
-0.00156771
-0.000228436
-0.00144401
-0.000249501
-0.00130987
-0.000270533
-0.00116545
-0.000291259
-0.00101105
-0.000311379
-0.000847188
-0.000330469
-0.000674515
-0.000348251
-0.000493871
-0.000364324
-0.000306311
-0.000378317
-0.000113034
-0.000389853
8.45292e-05
-0.000398629
0.000284943
-0.000404446
0.00048669
-0.000407202
0.000688202
-0.000406816
0.000887938
-0.000403322
0.00108443
-0.000396858
0.00127631
-0.000387647
0.00146237
-0.000375992
0.0016416
-0.000362261
0.00181317
-0.000346839
0.00197647
-0.000330205
0.00213105
-0.000312633
0.00227682
-0.000294845
0.00241355
-0.000276591
0.00254181
-0.000259483
0.00266119
-0.000241531
0.00277341
-0.000227047
0.00287703
-0.00020961
0.00297588
-0.000199985
0.00306622
-0.000182663
0.00315536
-0.000180278
-0.000163753
-0.00204937
-7.96449e-05
-0.00201742
-9.83057e-05
-0.00197867
-0.000119469
-0.00193258
-0.000142217
-0.00187865
-0.00016647
-0.0018164
-0.000192165
-0.00174541
-0.000219207
-0.00166525
-0.000247479
-0.00157557
-0.00027683
-0.00147609
-0.000307067
-0.00136657
-0.000337951
-0.00124692
-0.000369157
-0.00111715
-0.000400304
-0.000977406
-0.000431001
-0.000827955
-0.00046083
-0.000669351
-0.000489073
-0.000502249
-0.000515353
-0.000327404
-0.000539169
-0.000145837
-0.000559885
4.10588e-05
-0.000576749
0.000231907
-0.000589477
0.000425446
-0.000597985
0.000620138
-0.000601894
0.000814445
-0.000601123
0.00100687
-0.000595744
0.00119598
-0.000585969
0.00138047
-0.000572143
0.0015592
-0.000554722
0.0017312
-0.000534259
0.00189569
-0.000511327
0.00205212
-0.00048664
0.0022001
-0.000460604
0.00233954
-0.000434286
0.00247026
-0.000407313
0.00259283
-0.000382056
0.00270691
-0.000355605
0.00281411
-0.000334249
0.00291315
-0.000308654
0.00300761
-0.000294442
0.00309411
-0.000269162
0.00317938
-0.000265548
-0.000241574
-0.00173577
-0.000104843
-0.00170533
-0.000128744
-0.0016686
-0.000156201
-0.00162497
-0.000185841
-0.00157395
-0.000217491
-0.00151506
-0.000251059
-0.00144785
-0.000286413
-0.00137193
-0.000323399
-0.00128694
-0.00036182
-0.00119258
-0.000401426
-0.00108862
-0.000441918
-0.00097491
-0.000482863
-0.000851514
-0.0005237
-0.000718548
-0.000563967
-0.000576241
-0.000603137
-0.000425144
-0.00064017
-0.000265927
-0.00067457
-9.89218e-05
-0.000706174
7.37791e-05
-0.000732586
0.000251485
-0.000754455
0.00043314
-0.000771131
0.000617199
-0.000782044
0.000802188
-0.000786882
0.000986623
-0.000785557
0.00116906
-0.000778178
0.00134813
-0.000765041
0.0015226
-0.000746616
0.0016914
-0.000723515
0.00185361
-0.000696478
0.00200855
-0.000666259
0.00215571
-0.000633808
0.00229476
-0.000599649
0.00242566
-0.000565187
0.00254827
-0.000529925
0.00266316
-0.000496946
0.00277005
-0.000462492
0.00287045
-0.00043465
0.00296328
-0.000401484
0.00305175
-0.000382915
0.00313301
-0.000350417
0.00321299
-0.00034553
-0.00031495
-0.00135471
-0.000128502
-0.00132631
-0.000157147
-0.00129225
-0.000190261
-0.00125191
-0.000226186
-0.00120475
-0.000264648
-0.00115029
-0.000305513
-0.0010881
-0.00034861
-0.00101775
-0.000393748
-0.000938879
-0.000440688
-0.00085118
-0.000489126
-0.000754397
-0.0005387
-0.000648304
-0.000588956
-0.000533029
-0.000638974
-0.00040871
-0.000688286
-0.000275259
-0.000736588
-0.000133165
-0.000782264
1.66039e-05
-0.000824339
0.000172047
-0.000861617
0.000333916
-0.000894454
0.000500772
-0.000921311
0.000671185
-0.000941544
0.000843751
-0.000954611
0.00101705
-0.000960179
0.00118965
-0.000958158
0.00136017
-0.000948702
0.00152733
-0.0009322
0.00168996
-0.00090925
0.00184707
-0.000880618
0.00199782
-0.000847234
0.00214159
-0.000810022
0.00227795
-0.00077017
0.00240661
-0.000728306
0.00252758
-0.000686162
0.00264077
-0.000643115
0.00274673
-0.000602909
0.00284527
-0.000561029
0.00293776
-0.000527136
0.00302334
-0.000487072
0.00310483
-0.000464401