/*--------------------------------*- C++ -*----------------------------------*\
  =========                 |
  \\      /  F ield         | OpenFOAM: The Open Source CFD Toolbox
   \\    /   O peration     | Website:  https://openfoam.org
    \\  /    A nd           | Version:  7
     \\/     M anipulation  |
\*---------------------------------------------------------------------------*/
FoamFile
{
    version     2.0;
    format      ascii;
    class       volVectorField;
    location    "5";
    object      U;
}
// * * * * * * * * * * * * * * * * * * * * * * * * * * * * * * * * * * * * * //

dimensions      [0 1 -1 0 0 0 0];

internalField   nonuniform List<vector> 
8330
(
(-0.0119624 0.00485455 -3.91078e-21)
(-0.0558072 0.00869598 -1.78437e-20)
(-0.120723 0.0102305 -2.49618e-20)
(-0.184703 0.0107456 6.84958e-21)
(-0.249401 0.0108754 7.82182e-21)
(-0.311818 0.0108145 1.82577e-22)
(-0.371954 0.010548 -1.52885e-20)
(-0.42836 0.00999737 -3.60035e-21)
(-0.479659 0.00908004 -2.37566e-20)
(-0.523894 0.00772138 -3.13647e-21)
(-0.558943 0.00587814 -2.2331e-20)
(-0.58261 0.00346104 -2.35033e-20)
(-0.593502 0.000752954 3.77663e-21)
(-0.584933 -0.0031317 -1.33715e-20)
(-0.0121982 0.0144497 -3.1994e-21)
(-0.0556477 0.0259368 6.94866e-20)
(-0.119698 0.0305507 -1.19123e-20)
(-0.182722 0.0321063 -8.78492e-21)
(-0.246296 0.032498 -4.07373e-20)
(-0.307394 0.0323115 1.90119e-20)
(-0.36596 0.0315074 1.90741e-20)
(-0.42051 0.0298537 6.176e-20)
(-0.46964 0.0271047 -9.11601e-21)
(-0.511367 0.0230361 -2.31914e-20)
(-0.543583 0.0175279 3.91928e-20)
(-0.563956 0.0102771 3.57329e-20)
(-0.571586 0.00224137 3.86537e-20)
(-0.558381 -0.00942893 3.50376e-20)
(-0.0126589 0.0237197 4.32201e-21)
(-0.0553322 0.0427463 -9.67687e-20)
(-0.117676 0.0504698 1.77652e-20)
(-0.178808 0.0530955 -8.06815e-20)
(-0.24016 0.0537531 -4.97521e-20)
(-0.298657 0.0534268 5.32555e-21)
(-0.354131 0.0520669 -2.68029e-21)
(-0.405041 0.0492973 -6.1437e-20)
(-0.449931 0.0447164 8.60136e-20)
(-0.48678 0.037949 2.31011e-20)
(-0.51355 0.028832 1.51147e-20)
(-0.527596 0.0167401 -1.16719e-19)
(-0.529209 0.00362216 5.32951e-20)
(-0.507237 -0.0158741 3.09466e-20)
(-0.0133227 0.0324602 1.14613e-20)
(-0.0548679 0.0588475 -4.12465e-20)
(-0.114706 0.0697262 1.94595e-20)
(-0.173056 0.0734696 3.53817e-20)
(-0.23114 0.0744007 -1.04163e-20)
(-0.285822 0.0739125 -1.06187e-19)
(-0.336782 0.0719686 1.2564e-19)
(-0.382397 0.0680645 1.57732e-19)
(-0.421165 0.0616574 1.7636e-20)
(-0.451015 0.0522187 -3.87242e-20)
(-0.470119 0.0396079 7.47561e-20)
(-0.475248 0.0226894 5.15258e-20)
(-0.468957 0.00488191 -5.48127e-20)
(-0.434913 -0.0224311 -2.09464e-19)
(-0.0141588 0.0404852 7.69923e-20)
(-0.0542655 0.0739783 -1.55488e-20)
(-0.110866 0.0880665 9.84203e-20)
(-0.165602 0.0929914 -1.87435e-20)
(-0.219448 0.0942082 1.01106e-19)
(-0.269203 0.0935301 -3.68459e-20)
(-0.314362 0.0909665 -9.88396e-20)
(-0.353216 0.085907 -3.36468e-20)
(-0.384233 0.0776909 -6.58039e-20)
(-0.405291 0.0656322 9.24924e-20)
(-0.415011 0.0497185 -1.44247e-19)
(-0.409132 0.0280521 1.94107e-19)
(-0.394056 0.0060574 -2.38908e-20)
(-0.345554 -0.0289065 1.8576e-19)
(-0.0151286 0.0476331 -5.67631e-20)
(-0.0535384 0.0878982 1.42129e-19)
(-0.106253 0.105249 -1.10487e-19)
(-0.156626 0.111432 7.10368e-20)
(-0.205359 0.112952 6.48977e-20)
(-0.249199 0.112053 1.07022e-19)
(-0.287439 0.10883 1.07301e-19)
(-0.318291 0.102595 -8.24975e-20)
(-0.340236 0.0926016 2.48661e-20)
(-0.351074 0.0780024 -1.5625e-19)
(-0.350251 0.0590515 9.46126e-20)
(-0.331742 0.0328326 -2.35647e-19)
(-0.307933 0.00717433 -1.09179e-20)
(-0.243382 -0.0350193 -6.84001e-20)
(-0.0161879 0.0537724 -1.46298e-20)
(-0.0527034 0.100393 4.95572e-21)
(-0.100984 0.121047 1.32125e-19)
(-0.146337 0.128573 -5.78983e-20)
(-0.189197 0.130421 -8.30673e-20)
(-0.226278 0.12927 -1.44051e-19)
(-0.256676 0.125345 -8.04296e-20)
(-0.278538 0.117917 -2.37005e-20)
(-0.290434 0.106194 1.82324e-19)
(-0.290012 0.0891622 2.42865e-20)
(-0.278056 0.0674852 2.31038e-20)
(-0.245739 0.0370918 3.42196e-19)
(-0.213977 0.00816855 -2.87134e-20)
(-0.132368 -0.0401919 6.23485e-20)
(-0.0172894 0.0588056 -2.20151e-21)
(-0.0517792 0.111281 -3.18919e-20)
(-0.095192 0.135253 -1.71707e-20)
(-0.13498 0.144207 -1.04411e-19)
(-0.171329 0.146413 -5.56631e-20)
(-0.200965 0.144984 2.11643e-19)
(-0.222809 0.140317 -7.96585e-20)
(-0.234962 0.131684 -3.57763e-20)
(-0.236186 0.118292 -1.44901e-20)
(-0.223861 0.0989665 -1.18766e-19)
(-0.200747 0.0748536 -9.74557e-20)
(-0.15394 0.0409684 -2.75887e-19)
(-0.115324 0.00864904 -2.07316e-19)
(-0.0164375 -0.0437228 1.40654e-19)
(-0.0183852 0.0626722 -8.51417e-20)
(-0.0507871 0.120415 1.53058e-19)
(-0.0890224 0.14768 3.54292e-20)
(-0.122817 0.158143 1.25249e-19)
(-0.152154 0.160743 7.039e-21)
(-0.173826 0.159013 -2.25377e-20)
(-0.186617 0.15357 -1.72704e-20)
(-0.188614 0.14373 3.54444e-19)
(-0.1789 0.12874 -4.11314e-19)
(-0.154429 0.107306 1.80039e-20)
(-0.120594 0.0808832 3.83173e-20)
(-0.0593805 0.0447362 2.03426e-19)
(-0.0148161 0.00800506 -2.47805e-19)
(0.0994036 -0.0461073 1.24797e-19)
(-0.0194293 0.0653501 -1.86232e-19)
(-0.0497493 0.127692 -6.44538e-20)
(-0.0826284 0.158169 1.20784e-20)
(-0.110129 0.170203 3.8802e-20)
(-0.132093 0.173235 -2.62108e-19)
(-0.14545 0.171191 8.34998e-20)
(-0.148902 0.164946 -7.48868e-20)
(-0.140558 0.15391 -2.42651e-19)
(-0.119969 0.137394 1.81045e-19)
(-0.0835386 0.114136 1.05236e-19)
(-0.0396222 0.0851689 7.70445e-20)
(0.0350566 0.0483035 3.56745e-19)
(0.0843954 0.00686469 3.82142e-19)
(0.214414 -0.0483751 -1.11056e-19)
(-0.0203806 0.0668556 2.09279e-19)
(-0.0486894 0.133048 -2.0206e-19)
(-0.0761671 0.166587 1.66835e-19)
(-0.0972059 0.180229 -2.70326e-19)
(-0.11158 0.183729 4.33849e-21)
(-0.116435 0.181367 -2.59342e-19)
(-0.110466 0.174303 -8.67155e-20)
(-0.0918444 0.162102 1.99461e-19)
(-0.0607006 0.1441 2.56887e-19)
(-0.012953 0.119402 1.70208e-19)
(0.0401811 0.0877018 1.77094e-21)
(0.127549 0.0509144 -4.66838e-19)
(0.179531 0.00574868 2.07084e-19)
(0.326271 -0.0511 -2.04354e-19)
(-0.0212057 0.0672421 -7.32086e-20)
(-0.0476311 0.136468 -1.42309e-19)
(-0.0697939 0.172841 -1.90328e-19)
(-0.0843369 0.188082 4.07587e-19)
(-0.0910478 0.192079 3.13149e-19)
(-0.0873747 0.189403 2.19074e-19)
(-0.0720928 0.181522 3.09932e-19)
(-0.0434849 0.168185 -2.03459e-19)
(-0.00231953 0.148757 -3.80793e-19)
(0.0559273 0.12296 -3.91443e-19)
(0.116964 0.08865 3.59772e-19)
(0.216253 0.052174 2.65834e-19)
(0.269607 0.00389794 -2.2976e-19)
(0.433793 -0.0544282 -6.20449e-20)
(-0.0218798 0.0665931 2.27444e-19)
(-0.0465994 0.137984 2.20569e-19)
(-0.0636579 0.176874 -9.25832e-20)
(-0.071803 0.193649 2.58288e-19)
(-0.0709188 0.198153 -1.49314e-19)
(-0.0588402 0.195172 -2.91842e-19)
(-0.0345197 0.186479 -1.65296e-19)
(0.00359664 0.17206 1.32103e-19)
(0.0540518 0.151294 2.26751e-19)
(0.121891 0.124698 -2.94694e-20)
(0.18973 0.0878312 -1.77675e-19)
(0.299755 0.052078 -3.27057e-19)
(0.354808 0.0007226 -1.45889e-21)
(0.537264 -0.058489 1.74176e-19)
(-0.0223879 0.065022 -7.6376e-20)
(-0.0456183 0.137677 1.43315e-19)
(-0.0578944 0.178665 2.1505e-19)
(-0.0598683 0.196849 -3.41926e-19)
(-0.0515897 0.201841 5.31037e-19)
(-0.0313679 0.19856 1.71523e-19)
(0.00158393 0.189063 3.17527e-19)
(0.0485932 0.173643 -2.76109e-19)
(0.10753 0.151597 3.81323e-19)
(0.18396 0.124556 3.61103e-19)
(0.258126 0.0852193 -9.11281e-20)
(0.377646 0.0504518 -2.12418e-19)
(0.436566 -0.00408551 1.91271e-19)
(0.637813 -0.0631344 3.36229e-20)
(-0.0227283 0.0626669 -2.08411e-19)
(-0.0447118 0.135669 5.9513e-20)
(-0.0526207 0.178243 1.05547e-19)
(-0.0487644 0.197639 1.28428e-19)
(-0.033416 0.203057 -3.828e-19)
(-0.00543206 0.199474 -4.31164e-20)
(0.03564 0.189195 -8.06955e-20)
(0.0908555 0.172858 3.85358e-19)
(0.157527 0.149587 -8.43116e-20)
(0.241658 0.122367 2.17375e-19)
(0.32251 0.0808792 -7.99521e-20)
(0.450672 0.0470894 4.21585e-19)
(0.51745 -0.0105084 -7.5765e-20)
(0.736548 -0.067884 -1.64824e-19)
(-0.0229116 0.0596802 3.43007e-20)
(-0.0439021 0.13212 2.55428e-19)
(-0.0479318 0.175691 -1.54612e-19)
(-0.0386798 0.196016 1.25267e-19)
(-0.0166893 0.201754 -1.63961e-19)
(0.0185859 0.19785 4.9076e-20)
(0.0672167 0.186814 -2.1505e-19)
(0.129968 0.169654 -2.00939e-19)
(0.20383 0.145242 -6.54573e-19)
(0.295097 0.118038 -4.9123e-19)
(0.384041 0.0749099 -2.934e-19)
(0.520791 0.0419304 -6.51888e-19)
(0.600497 -0.0180791 -1.74359e-19)
(0.833752 -0.0720144 -5.14838e-21)
(-0.0229609 0.0562229 -2.34734e-19)
(-0.04321 0.127228 -6.13346e-19)
(-0.0438917 0.171138 -2.94339e-19)
(-0.0297458 0.192032 -4.07582e-19)
(-0.00161265 0.197928 4.25522e-19)
(0.0404374 0.193661 -6.86017e-20)
(0.0960905 0.181898 -8.48686e-20)
(0.165855 0.16402 -4.47029e-19)
(0.246792 0.138639 6.0934e-19)
(0.345284 0.111512 2.5121e-19)
(0.444623 0.0675494 3.68203e-19)
(0.590838 0.0351965 9.94818e-20)
(0.688057 -0.0258914 4.98638e-19)
(0.928424 -0.0747359 -3.22936e-19)
(-0.0229098 0.0524576 2.75693e-19)
(-0.042653 0.121214 -9.31902e-20)
(-0.0405273 0.164764 -2.78955e-19)
(-0.0220202 0.185796 -1.96708e-20)
(0.0117294 0.191636 6.16824e-20)
(0.0600566 0.186943 2.61725e-19)
(0.122323 0.17449 2.33201e-20)
(0.198891 0.156016 1.27457e-19)
(0.287383 0.129954 -7.297e-19)
(0.394187 0.102879 7.56448e-20)
(0.506845 0.0592044 -1.00701e-21)
(0.663808 0.0274938 2.86706e-19)
(0.780603 -0.0328108 -7.40891e-20)
(1.01839 -0.0754194 2.7616e-19)
(-0.0228007 0.0485414 -8.84196e-20)
(-0.0422437 0.114318 1.68201e-19)
(-0.0378226 0.156789 6.62581e-19)
(-0.0154711 0.177478 2.89767e-19)
(0.0234033 0.183007 -1.63301e-19)
(0.0776173 0.177811 -3.31186e-20)
(0.146348 0.164729 -2.90227e-19)
(0.230018 0.145821 4.16873e-19)
(0.327311 0.119515 3.6718e-19)
(0.44451 0.092635 -3.95171e-19)
(0.57342 0.0505203 -7.39811e-20)
(0.741761 0.01978 9.68364e-20)
(0.876167 -0.0377907 -2.95065e-19)
(1.1009 -0.0737765 -2.81426e-19)
(-0.0226815 0.0446191 -7.89554e-20)
(-0.0419857 0.106787 -3.57384e-20)
(-0.0357129 0.147476 6.79878e-20)
(-0.00996109 0.167314 -3.00799e-19)
(0.0336585 0.172253 2.37734e-20)
(0.0935879 0.16648 -4.56037e-19)
(0.169045 0.152878 -1.00361e-20)
(0.260791 0.133783 -3.09333e-19)
(0.368943 0.107836 -9.40485e-20)
(0.499304 0.0815639 2.55778e-19)
(0.646392 0.0423601 -2.82629e-19)
(0.824819 0.0131322 -7.10249e-19)
(0.970809 -0.0401388 3.76472e-19)
(1.17341 -0.0699079 6.01383e-19)
(-0.0226018 0.0408184 -6.64436e-20)
(-0.0418697 0.0988639 -3.77516e-20)
(-0.0340782 0.137114 8.79746e-20)
(-0.00523457 0.1556 5.90461e-19)
(0.0429539 0.159675 2.00032e-19)
(0.10877 0.153281 2.277e-19)
(0.19177 0.13935 8.70229e-20)
(0.293328 0.120442 8.48725e-20)
(0.415006 0.0956524 -3.35379e-21)
(0.561207 0.0706968 -1.53351e-19)
(0.72627 0.0356528 2.91671e-19)
(0.910826 0.00841546 9.28089e-20)
(1.05988 -0.0396313 -6.62091e-20)
(1.23424 -0.0642205 -6.93237e-19)
(-0.0418684 0.0907761 -3.82564e-20)
(-0.0327391 0.126012 -5.66003e-19)
(-0.000909636 0.142684 -3.58248e-19)
(0.0519703 0.14566 -2.2628e-19)
(0.124307 0.138664 2.022e-19)
(0.216306 0.124716 2.82778e-19)
(0.330092 0.106537 6.5665e-20)
(0.468067 0.0838737 -1.30327e-19)
(0.631597 0.0611379 4.79235e-19)
(0.811532 0.0311528 3.9322e-19)
(0.995965 0.00605036 1.63512e-19)
(1.13937 -0.0364633 -1.96959e-19)
(1.28286 -0.0572819 7.62384e-19)
(-0.0419312 0.0827298 -1.00124e-19)
(-0.0314542 0.114482 2.47025e-19)
(0.00352139 0.128955 2.75115e-19)
(0.0616016 0.130669 1.48641e-19)
(0.141634 0.123193 5.10756e-20)
(0.244714 0.109687 1.2625e-19)
(0.373511 0.0929694 -2.13714e-19)
(0.529875 0.0734772 3.63442e-19)
(0.709978 0.0538232 -2.39623e-19)
(0.898866 0.029232 -2.04693e-19)
(1.076 0.00599238 -7.07335e-20)
(1.20676 -0.0310996 -3.14932e-19)
(1.31978 -0.0496844 -6.44476e-19)
(-0.0419804 0.0748999 4.49179e-19)
(-0.0299221 0.102827 3.36968e-19)
(0.00867978 0.114821 -3.0165e-19)
(0.0729169 0.11522 -5.51987e-20)
(0.16238 0.107517 -5.76329e-21)
(0.279081 0.0950695 2.25089e-19)
(0.425492 0.0807034 4.20774e-19)
(0.600755 0.0653309 -2.54465e-19)
(0.793916 0.0493072 1.19665e-19)
(0.984075 0.0298215 -3.6191e-19)
(1.14744 0.00788128 1.69429e-19)
(1.26118 -0.0240989 4.37104e-19)
(1.34624 -0.0419571 -1.02438e-19)
(-0.0419088 0.0674249 2.63738e-19)
(-0.027788 0.0913274 -3.31372e-19)
(0.0152746 0.100694 6.91716e-20)
(0.0870931 0.0998557 -1.00209e-19)
(0.1882 0.092326 1.71593e-19)
(0.321193 0.0817003 -2.85525e-19)
(0.486933 0.0706317 3.38256e-20)
(0.679336 0.0600058 2.53069e-19)
(0.879634 0.0476801 -5.01848e-19)
(1.0632 0.0325158 4.02837e-19)
(1.20821 0.0112426 -3.39654e-19)
(1.30305 -0.0159625 2.08718e-20)
(1.36386 -0.034539 7.58128e-19)
(-0.0246566 0.0802272 -4.01685e-19)
(0.0240637 0.0869589 -1.85854e-19)
(0.10532 0.0851081 -3.3841e-19)
(0.220588 0.0783023 -4.71314e-19)
(0.372204 0.070357 -2.03739e-19)
(0.5574 0.0634229 -8.8554e-20)
(0.762765 0.0576623 -6.43471e-19)
(0.962999 0.0486452 1.69612e-19)
(1.13337 0.036748 6.2841e-21)
(1.25767 0.015657 3.53273e-19)
(1.33359 -0.00704387 -2.57482e-19)
(1.3743 -0.0278227 7.77492e-20)
(-0.0201098 0.0697232 7.37984e-19)
(0.0358054 0.0739589 -7.44446e-20)
(0.128697 0.0714672 1.73289e-19)
(0.260671 0.0660716 -2.04949e-19)
(0.432364 0.0616672 3.15384e-19)
(0.635092 0.0593994 -2.40836e-20)
(0.847365 0.0580728 5.82807e-20)
(1.04045 0.0516875 2.38457e-19)
(1.19306 0.0419472 -1.14459e-19)
(1.29631 0.0208657 -3.78566e-19)
(1.35437 0.00239462 -3.73482e-20)
(1.37917 -0.0222424 -5.87027e-19)
(-0.013728 0.0599585 -6.42405e-19)
(0.0512084 0.0619749 6.30131e-19)
(0.158128 0.0593543 8.02641e-20)
(0.309041 0.0561564 -4.93898e-20)
(0.500892 0.0560264 -5.07194e-19)
(0.717165 0.0585012 -3.6408e-19)
(0.929458 0.0607598 3.60518e-19)
(1.10955 0.0562353 9.70939e-20)
(1.24203 0.047648 9.26627e-20)
(1.32526 0.0267741 6.1213e-19)
(1.36712 0.0118788 -3.60933e-19)
(1.37983 -0.0183836 4.82743e-20)
(-0.00511059 0.0510203 7.08035e-19)
(0.0708869 0.0512188 -2.23588e-19)
(0.194242 0.0491086 -1.28857e-19)
(0.365642 0.0489399 6.31439e-19)
(0.57604 0.0535466 -8.91248e-20)
(0.800299 0.0603585 4.83189e-19)
(1.00603 0.0651639 -3.76296e-19)
(1.16906 0.0617644 -1.13476e-19)
(1.28087 0.0535553 -1.06348e-19)
(1.34597 0.0332976 -5.19478e-19)
(1.37386 0.0203853 2.64921e-19)
(1.37731 -0.0166016 -3.32969e-20)
(0.0953286 0.0418361 1.71911e-19)
(0.237331 0.0409877 1.68959e-19)
(0.429734 0.0446364 -4.34624e-19)
(0.655359 0.0540608 2.31694e-19)
(0.881318 0.0644339 2.52286e-20)
(1.07503 0.0707649 4.21153e-19)
(1.21873 0.0678545 1.40412e-20)
(1.31066 0.0595364 2.48374e-19)
(1.35981 0.0401005 3.61798e-19)
(1.3764 0.0269871 6.9109e-21)
(1.37603 -0.00427285 5.36697e-19)
(0.124876 0.0339191 -3.0331e-19)
(0.287323 0.0351747 -3.13852e-19)
(0.49995 0.0432739 -2.3408e-19)
(0.736099 0.0571909 1.758e-19)
(0.957637 0.0701643 1.34145e-19)
(1.13541 0.0771364 1.02429e-19)
(1.25904 0.0742097 -1.37048e-19)
(1.33267 0.0655246 8.3819e-20)
(1.36817 0.0466895 -1.2977e-19)
(1.37639 0.0340652 2.68558e-19)
(1.37179 0.00347178 -1.26318e-20)
(0.343765 0.0317834 8.17163e-20)
(0.574445 0.0446991 4.85481e-19)
(0.81562 0.0624517 2.48213e-19)
(1.02746 0.0770514 5.15817e-20)
(1.1869 0.0839563 -2.99945e-19)
(1.29088 0.0806423 1.56569e-19)
(1.3482 0.0714212 4.71643e-20)
(1.37241 0.0532013 -1.44647e-19)
(1.37412 0.0404 -2.73305e-20)
(1.36665 0.0121351 -5.44008e-19)
(0.405842 0.030854 3.53446e-19)
(0.651128 0.0486136 5.11e-20)
(0.891698 0.0693502 -2.35103e-19)
(1.08976 0.0846959 4.92829e-20)
(1.22981 0.0909955 -2.07835e-19)
(1.31531 0.0870322 -1.8218e-20)
(1.3585 0.0772169 -1.26464e-19)
(1.37352 0.0594788 -6.48644e-20)
(1.37042 0.0466921 -3.20002e-19)
(1.36078 0.0199393 3.32484e-20)
(0.472419 0.0323424 -5.07272e-19)
(0.7279 0.0546354 -5.94868e-19)
(0.962677 0.0774479 -2.38377e-19)
(1.14416 0.0927969 -2.65378e-19)
(1.26478 0.0980985 8.84726e-20)
(1.33346 0.0933193 -1.59138e-19)
(1.36465 0.0828924 -1.38952e-19)
(1.37237 0.0656001 -1.42033e-20)
(1.36569 0.052724 -1.80153e-19)
(1.35451 0.0275235 4.46202e-19)
(0.802874 0.0623637 5.28992e-19)
(1.02748 0.0863852 -2.10644e-19)
(1.19075 0.101136 -1.2736e-19)
(1.29266 0.105167 9.98987e-20)
(1.3464 0.0994784 2.99143e-19)
(1.36759 0.0884649 7.9519e-20)
(1.36958 0.0715609 -1.51491e-19)
(1.36033 0.058637 9.6882e-20)
(1.34807 0.034772 -9.90875e-20)
(0.874501 0.0714267 1.70868e-19)
(1.08555 0.0958806 1.38561e-21)
(1.22994 0.109561 -1.54973e-19)
(1.31437 0.112144 -1.00494e-19)
(1.3551 0.105511 1.76531e-19)
(1.36809 0.0939525 9.74595e-20)
(1.36567 0.0774048 1.95343e-19)
(1.35457 0.0644214 4.47206e-19)
(1.34156 0.0417665 -2.38002e-19)
(1.13672 0.10572 4.64817e-19)
(1.26233 0.117969 2.83652e-19)
(1.33081 0.119006 1.52542e-19)
(1.3604 0.111434 -6.05516e-19)
(1.36678 0.0993824 -1.21096e-19)
(1.36099 0.0831559 -1.09447e-19)
(1.34858 0.0701141 9.20879e-21)
(1.33508 0.0485349 -9.17112e-21)
(1.28862 0.126298 -3.00167e-19)
(1.34282 0.12575 -3.23747e-19)
(1.36303 0.117272 2.37859e-19)
(1.36412 0.10478 2.87027e-20)
(1.35579 0.0888421 2.23928e-19)
(1.34249 0.0757291 -7.46524e-20)
(1.32866 0.0551057 2.3889e-19)
(1.30955 0.134514 3.62838e-19)
(1.35117 0.13239 5.27961e-19)
(1.36357 0.123055 -1.29965e-20)
(1.3605 0.11017 1.48691e-20)
(1.35027 0.0944836 -2.84636e-19)
(1.33635 0.0812824 -1.57028e-19)
(1.32231 0.0615046 -9.86345e-20)
(1.35653 0.138947 -7.50458e-20)
(1.3625 0.128812 -2.46079e-19)
(1.35617 0.115573 1.25463e-19)
(1.34455 0.100097 -1.1294e-19)
(1.33022 0.0867847 1.80998e-19)
(1.31605 0.0677509 1.37735e-19)
(1.36021 0.134568 3.82832e-19)
(1.35136 0.121004 -1.37285e-19)
(1.33869 0.105695 9.04152e-20)
(1.32409 0.0922444 -8.38e-20)
(1.30986 0.0738618 -1.32994e-19)
(1.34619 0.126476 -2.29949e-19)
(1.33276 0.111284 1.70839e-19)
(1.31799 0.0976675 8.00357e-20)
(1.30374 0.079851 4.13195e-20)
(1.32677 0.116871 -1.37029e-19)
(1.3119 0.103058 6.12703e-20)
(1.29766 0.08573 1.23953e-19)
(1.30582 0.108418 -1.6189e-19)
(1.29162 0.0915078 2.87873e-20)
(1.2856 0.0971916 -1.07652e-19)
(1.2856 -0.0972041 -5.15044e-20)
(1.32076 -0.12247 -9.27859e-20)
(1.30584 -0.108433 -1.65351e-19)
(1.29163 -0.0915212 6.76943e-20)
(1.34078 -0.132011 3.43295e-19)
(1.32679 -0.116885 -1.36532e-19)
(1.31192 -0.103073 1.31015e-19)
(1.29767 -0.0857442 9.42151e-20)
(1.34621 -0.126491 -2.07846e-19)
(1.33278 -0.111299 1.91251e-19)
(1.31801 -0.0976825 3.29664e-20)
(1.30375 -0.0798659 7.71332e-20)
(1.36024 -0.134583 9.86077e-21)
(1.35138 -0.121019 -6.7388e-20)
(1.33872 -0.105709 9.88755e-20)
(1.32411 -0.0922596 -1.04061e-19)
(1.30987 -0.0738771 -1.52521e-19)
(1.35657 -0.138964 -4.70729e-19)
(1.36253 -0.128827 -1.66011e-19)
(1.3562 -0.115588 5.4179e-20)
(1.34457 -0.100112 -5.22523e-20)
(1.33024 -0.0867999 1.27611e-19)
(1.31606 -0.0677664 1.64498e-19)
(1.30961 -0.134531 7.92081e-20)
(1.35122 -0.132407 5.00033e-19)
(1.3636 -0.123071 3.21332e-20)
(1.36052 -0.110185 3.56599e-23)
(1.3503 -0.0944984 -2.02517e-19)
(1.33638 -0.0812976 -1.63754e-19)
(1.32233 -0.0615201 -1.41146e-19)
(1.28869 -0.126315 -3.02262e-19)
(1.34287 -0.125767 -3.33462e-19)
(1.36306 -0.117288 3.30553e-19)
(1.36415 -0.104795 4.68917e-20)
(1.35582 -0.0888568 1.78857e-19)
(1.34251 -0.0757442 9.24251e-21)
(1.32867 -0.055121 1.17862e-19)
(1.13679 -0.105735 -3.80708e-20)
(1.2624 -0.117985 3.89493e-19)
(1.33086 -0.119022 2.27956e-20)
(1.36044 -0.111449 -5.83938e-19)
(1.3668 -0.0993973 -6.69908e-20)
(1.36101 -0.0831704 -4.89796e-20)
(1.34861 -0.0701289 -2.17266e-20)
(1.3351 -0.0485498 5.46477e-21)
(0.874561 -0.0714373 -3.57662e-19)
(1.08562 -0.0958941 -4.94318e-21)
(1.23001 -0.109576 -6.83071e-20)
(1.31443 -0.112159 1.37503e-21)
(1.35514 -0.105526 1.13776e-19)
(1.36812 -0.0939674 9.99344e-20)
(1.36569 -0.0774191 1.99827e-19)
(1.35459 -0.0644359 4.1663e-19)
(1.34158 -0.041781 -2.4111e-19)
(0.802927 -0.0623728 4.5649e-19)
(1.02755 -0.0863973 -2.6467e-19)
(1.19082 -0.10115 -5.60566e-20)
(1.29272 -0.105181 1.64165e-19)
(1.34645 -0.0994932 3.06074e-19)
(1.36762 -0.0884794 1.94296e-20)
(1.36961 -0.071575 -1.11601e-19)
(1.36035 -0.0586512 1.37119e-19)
(1.34809 -0.034786 -1.75147e-19)
(0.472446 -0.0323469 -1.85847e-19)
(0.727948 -0.0546428 -7.01802e-19)
(0.962739 -0.0774584 -1.92821e-19)
(1.14423 -0.0928096 -2.39436e-19)
(1.26484 -0.0981123 6.42594e-20)
(1.33351 -0.0933336 -1.30881e-19)
(1.36468 -0.0829066 -8.38911e-20)
(1.37239 -0.0656138 -1.60375e-20)
(1.36572 -0.0527378 -1.65617e-19)
(1.35453 -0.0275369 3.56486e-19)
(0.405862 -0.0308575 3.4382e-19)
(0.651168 -0.0486195 1.27134e-19)
(0.891755 -0.069359 -2.91954e-19)
(1.08983 -0.0847072 1.09424e-19)
(1.22987 -0.0910083 -2.14979e-19)
(1.31536 -0.0870457 -1.98893e-19)
(1.35854 -0.0772306 4.88984e-20)
(1.37355 -0.0594922 -6.55243e-20)
(1.37044 -0.0467055 -3.24464e-19)
(1.36081 -0.019952 4.21668e-20)
(0.159721 -0.0275326 4.70008e-20)
(0.343779 -0.0317862 9.94317e-20)
(0.574478 -0.0447037 4.75432e-19)
(0.815671 -0.0624589 2.74759e-19)
(1.02752 -0.0770611 -9.75314e-20)
(1.18696 -0.0839679 -1.80492e-19)
(1.29093 -0.0806549 5.54606e-20)
(1.34824 -0.0714343 -3.02301e-21)
(1.37244 -0.0532143 -8.12141e-21)
(1.37415 -0.040413 -2.30401e-20)
(1.36668 -0.0121473 -6.01941e-19)
(0.124874 -0.0339219 -2.48533e-19)
(0.287332 -0.035177 -4.38711e-19)
(0.499976 -0.0432773 -5.62823e-20)
(0.736143 -0.0571965 1.27003e-19)
(0.957694 -0.0701725 1.94133e-20)
(1.13547 -0.0771467 1.49487e-19)
(1.25909 -0.0742213 -1.01979e-19)
(1.33272 -0.0655371 -9.2633e-20)
(1.3682 -0.0467019 1.30194e-19)
(1.37642 -0.0340778 1.53391e-19)
(1.37181 -0.00348337 -8.56838e-20)
(0.095325 -0.0418387 9.4597e-20)
(0.237336 -0.0409896 2.3732e-19)
(0.429754 -0.0446387 -4.80816e-19)
(0.655396 -0.054065 1.89243e-19)
(0.881369 -0.0644405 2.19611e-20)
(1.07509 -0.0707738 4.622e-19)
(1.21878 -0.067865 1.77939e-19)
(1.31071 -0.0595481 1.07467e-19)
(1.35985 -0.0401124 2.74454e-19)
(1.37643 -0.0269994 1.70488e-19)
(1.37605 0.00426166 4.70825e-19)
(-0.00511753 -0.0510237 -1.98466e-19)
(0.070882 -0.0512214 -2.68048e-19)
(0.194243 -0.0491103 -8.04581e-20)
(0.365655 -0.0489414 6.95322e-19)
(0.576069 -0.0535494 -7.16981e-20)
(0.800344 -0.0603635 2.98583e-19)
(1.00608 -0.0651713 -2.95862e-19)
(1.16911 -0.0617737 4.77257e-21)
(1.28092 -0.0535661 -1.78447e-19)
(1.34601 -0.033309 -6.0062e-19)
(1.37389 -0.0203973 3.72316e-19)
(1.37733 0.0165909 -3.74628e-20)
(-0.0137349 -0.0599619 -7.63369e-19)
(0.0512025 -0.0619773 7.41667e-19)
(0.158127 -0.0593557 8.28741e-20)
(0.309049 -0.0561574 1.46868e-20)
(0.500914 -0.0560281 -4.89423e-19)
(0.717202 -0.0585047 -4.18945e-19)
(0.929507 -0.0607657 3.25292e-19)
(1.10961 -0.0562434 9.12007e-21)
(1.24208 -0.0476579 2.04505e-19)
(1.32531 -0.0267849 5.28498e-19)
(1.36715 -0.0118904 -2.49964e-19)
(1.37985 0.018373 4.52922e-20)
(-0.0201166 -0.0697264 8.32355e-19)
(0.035799 -0.0739612 -1.89064e-19)
(0.128694 -0.0714685 1.50351e-19)
(0.260675 -0.0660721 -1.70424e-19)
(0.432379 -0.061668 4.18563e-19)
(0.635122 -0.0594016 -2.57443e-20)
(0.847408 -0.0580773 -1.71326e-20)
(1.04051 -0.0516943 4.12848e-19)
(1.19311 -0.0419561 -2.64554e-19)
(1.29635 -0.0208758 -3.12428e-19)
(1.35441 -0.00240579 -1.38392e-19)
(1.3792 0.0222319 -5.36808e-19)
(-0.0415844 -0.0604059 -8.99206e-20)
(-0.0246631 -0.0802302 -3.63935e-19)
(0.0240569 -0.0869611 -1.46568e-19)
(0.105316 -0.0851092 -3.71372e-19)
(0.220588 -0.0783026 -5.36502e-19)
(0.372214 -0.0703572 -1.07131e-19)
(0.557422 -0.0634241 -7.40021e-20)
(0.762801 -0.0576655 -6.52377e-19)
(0.963045 -0.0486506 1.54624e-19)
(1.13341 -0.0367559 -1.78915e-21)
(1.25772 -0.0156664 3.14959e-19)
(1.33363 0.00703306 -2.43251e-19)
(1.37433 0.0278122 -9.71805e-21)
(-0.0419131 -0.0674278 3.12264e-19)
(-0.0277943 -0.0913301 -3.5953e-19)
(0.0152678 -0.100696 6.7796e-20)
(0.0870873 -0.0998567 -2.21146e-20)
(0.188197 -0.0923261 1.21026e-19)
(0.321198 -0.0817001 -2.57815e-19)
(0.486948 -0.0706321 1.01139e-20)
(0.679365 -0.0600079 2.61568e-19)
(0.879674 -0.0476843 -5.07455e-19)
(1.06325 -0.0325226 2.40878e-19)
(1.20826 -0.0112511 -1.75244e-19)
(1.30309 0.0159521 2.66653e-20)
(1.36389 0.0345286 6.84581e-19)
(-0.0419844 -0.0749025 4.86017e-19)
(-0.029928 -0.102829 3.07896e-19)
(0.00867296 -0.114823 -4.29258e-19)
(0.0729105 -0.115221 4.98988e-20)
(0.162376 -0.107517 -1.34437e-19)
(0.279082 -0.0950691 3.13385e-19)
(0.425501 -0.0807033 4.86351e-19)
(0.600776 -0.0653322 -2.60151e-19)
(0.793949 -0.0493104 1.30175e-19)
(0.984117 -0.0298274 -3.48763e-19)
(1.14748 -0.00788906 -6.6554e-21)
(1.26122 0.0240888 4.37811e-19)
(1.34628 0.0419467 -1.79447e-20)
(-0.0419347 -0.0827321 -1.75285e-19)
(-0.0314598 -0.114484 3.11199e-19)
(0.0035147 -0.128956 3.37464e-19)
(0.0615949 -0.13067 1.28546e-19)
(0.141629 -0.123193 -1.00383e-19)
(0.244712 -0.109686 3.21989e-19)
(0.373516 -0.0929691 -3.21677e-19)
(0.529889 -0.0734779 4.59607e-19)
(0.710003 -0.0538256 -3.19573e-19)
(0.898903 -0.029237 -3.39412e-19)
(1.07604 -0.00599943 1.12464e-19)
(1.20681 0.03109 -4.50055e-19)
(1.31981 0.049674 -4.9998e-19)
(-0.0418716 -0.0907781 -1.15019e-20)
(-0.0327443 -0.126014 -5.18871e-19)
(-0.000916126 -0.142686 -3.85807e-19)
(0.0519634 -0.145661 -1.82098e-19)
(0.1243 -0.138664 1.18861e-19)
(0.216302 -0.124716 2.22747e-19)
(0.330093 -0.106537 1.4262e-19)
(0.468076 -0.0838743 -1.80561e-19)
(0.631616 -0.06114 6.06525e-19)
(0.811561 -0.0311572 3.14442e-19)
(0.996002 -0.00605683 2.21284e-19)
(1.13942 0.0364541 -1.3452e-19)
(1.2829 0.0572715 7.84197e-19)
(-0.0226027 -0.0408193 8.33306e-20)
(-0.0418726 -0.0988655 9.17889e-20)
(-0.0340831 -0.137116 9.30951e-21)
(-0.00524084 -0.155601 5.16668e-19)
(0.0429469 -0.159676 1.59628e-19)
(0.108764 -0.15328 3.15262e-19)
(0.191765 -0.13935 -7.73026e-20)
(0.293326 -0.120442 1.77905e-19)
(0.41501 -0.0956531 1.22069e-19)
(0.561219 -0.0706989 -2.32085e-19)
(0.726292 -0.0356569 2.95322e-19)
(0.910857 -0.00842161 9.99693e-20)
(1.05992 0.0396224 5.22758e-20)
(1.23428 0.0642101 -8.48495e-19)
(-0.0226823 -0.0446198 -9.19371e-21)
(-0.0419883 -0.106789 8.72166e-20)
(-0.0357175 -0.147477 -1.17012e-19)
(-0.00996715 -0.167315 -1.58981e-19)
(0.0336516 -0.172253 -2.74113e-20)
(0.0935809 -0.16648 -5.32091e-19)
(0.169039 -0.152878 1.68697e-19)
(0.260787 -0.133783 -4.66402e-19)
(0.368944 -0.107837 -1.28113e-19)
(0.499311 -0.0815663 4.01448e-19)
(0.646408 -0.0423643 -3.11346e-19)
(0.824844 -0.0131384 -6.10092e-19)
(0.970843 0.0401301 3.29964e-19)
(1.17345 0.0698974 6.28499e-19)
(-0.0228013 -0.0485418 -1.04619e-19)
(-0.042246 -0.114319 1.96742e-19)
(-0.0378269 -0.15679 7.48124e-19)
(-0.015477 -0.177478 1.86915e-19)
(0.0233964 -0.183007 -2.37039e-19)
(0.0776101 -0.177811 8.11188e-21)
(0.146341 -0.164729 -1.91566e-19)
(0.230013 -0.145822 3.00247e-19)
(0.327309 -0.119516 4.83324e-19)
(0.444512 -0.092638 -3.84719e-19)
(0.573429 -0.0505249 -4.06368e-20)
(0.74178 -0.0197868 2.66047e-20)
(0.876194 0.0377817 -3.20967e-19)
(1.10093 0.0737658 -3.42513e-19)
(-0.0229103 -0.0524579 2.98284e-19)
(-0.0426551 -0.121214 -1.74274e-19)
(-0.0405313 -0.164764 -1.89596e-19)
(-0.0220259 -0.185796 -5.08449e-20)
(0.0117226 -0.191635 -4.30804e-20)
(0.0600492 -0.186943 3.42873e-19)
(0.122316 -0.17449 7.34336e-20)
(0.198884 -0.156017 9.5211e-20)
(0.287379 -0.129956 -6.31256e-19)
(0.394186 -0.102883 -1.0375e-19)
(0.50685 -0.0592096 -2.46402e-20)
(0.663821 -0.0275014 5.34589e-19)
(0.780624 0.0328013 -7.80529e-20)
(1.01842 0.0754082 1.9776e-19)
(-0.0229613 -0.0562229 -1.51472e-19)
(-0.0432118 -0.127228 -6.50536e-19)
(-0.0438955 -0.171138 -3.3288e-19)
(-0.0297513 -0.192032 -3.97372e-19)
(-0.00161943 -0.197927 4.28386e-19)
(0.0404299 -0.19366 -9.24506e-20)
(0.0960828 -0.181898 -1.95079e-20)
(0.165848 -0.164021 -6.0191e-19)
(0.246786 -0.138642 6.83332e-19)
(0.345282 -0.111517 3.72994e-19)
(0.444625 -0.0675555 2.53529e-19)
(0.590847 -0.0352053 2.09034e-19)
(0.688071 0.0258808 3.97744e-19)
(0.928453 0.0747239 -2.69189e-19)
(-0.0229119 -0.0596798 1.67672e-20)
(-0.0439038 -0.13212 2.53471e-19)
(-0.0479354 -0.17569 -9.54982e-20)
(-0.0386851 -0.196015 6.22915e-21)
(-0.016696 -0.201753 -1.37708e-19)
(0.0185783 -0.197849 -1.14337e-21)
(0.0672087 -0.186814 -1.3559e-19)
(0.129961 -0.169656 -8.43447e-20)
(0.203823 -0.145245 -6.33285e-19)
(0.295093 -0.118043 -6.46349e-19)
(0.38404 -0.0749169 -2.89765e-19)
(0.520796 -0.0419404 -5.24441e-19)
(0.600505 0.0180671 -2.10075e-19)
(0.833775 0.0720012 -4.51344e-20)
(-0.0227284 -0.0626662 -1.46896e-19)
(-0.0447133 -0.135668 2.73781e-20)
(-0.0526241 -0.178242 9.38184e-20)
(-0.0487695 -0.197637 1.03414e-19)
(-0.0334226 -0.203056 -3.47652e-19)
(-0.00543975 -0.199473 -5.49341e-20)
(0.0356317 -0.189195 -3.66941e-20)
(0.0908472 -0.17286 4.67762e-19)
(0.15752 -0.14959 -2.43084e-19)
(0.241652 -0.122373 2.23708e-19)
(0.322507 -0.0808873 -8.14321e-20)
(0.450675 -0.0471005 5.748e-19)
(0.517454 0.0104948 -1.69628e-19)
(0.736566 0.0678693 -8.34942e-20)
(-0.022388 -0.0650211 -2.29852e-20)
(-0.0456197 -0.137676 8.51065e-20)
(-0.0578977 -0.178663 2.47999e-19)
(-0.0598733 -0.196847 -3.66513e-19)
(-0.0515962 -0.201839 5.66796e-19)
(-0.0313756 -0.198559 1.86649e-19)
(0.00157541 -0.189063 3.11844e-19)
(0.0485844 -0.173644 -3.68038e-19)
(0.107522 -0.151601 4.16182e-19)
(0.183953 -0.124563 4.90736e-19)
(0.258121 -0.0852284 -2.91618e-19)
(0.377646 -0.050464 -1.12208e-19)
(0.436568 0.00407025 1.54998e-19)
(0.637826 0.0631181 1.42566e-19)
(-0.0218799 -0.0665919 3.21263e-19)
(-0.0466006 -0.137981 1.6519e-19)
(-0.063661 -0.176871 -7.28925e-20)
(-0.0718078 -0.193647 1.85477e-19)
(-0.0709252 -0.198151 -1.71168e-19)
(-0.058848 -0.195171 -2.32088e-19)
(-0.0345284 -0.186479 -1.36045e-19)
(0.00358748 -0.172062 8.72391e-20)
(0.0540426 -0.151298 3.86038e-19)
(0.121883 -0.124705 -1.84664e-19)
(0.189723 -0.0878413 -1.85167e-19)
(0.299753 -0.0520913 -2.55325e-19)
(0.354807 -0.000739471 -5.97993e-20)
(0.537273 0.058471 2.682e-19)
(-0.0212057 -0.0672405 -4.41079e-20)
(-0.0476323 -0.136465 -1.55632e-19)
(-0.0697968 -0.172838 -2.08219e-19)
(-0.0843415 -0.188079 3.89118e-19)
(-0.091054 -0.192077 3.41581e-19)
(-0.0873824 -0.189402 1.99189e-19)
(-0.0721015 -0.181522 3.65521e-19)
(-0.0434944 -0.168187 -1.8103e-19)
(-0.00232944 -0.148761 -5.18304e-19)
(0.0559181 -0.122968 -2.87044e-19)
(0.116956 -0.088661 3.22194e-19)
(0.216249 -0.0521883 3.22244e-19)
(0.269604 -0.0039163 -2.82773e-19)
(0.433799 0.0544085 -1.95943e-19)
(-0.0203806 -0.0668537 1.72763e-19)
(-0.0486904 -0.133045 -1.50686e-19)
(-0.0761698 -0.166584 1.26417e-19)
(-0.0972103 -0.180225 -2.31138e-19)
(-0.111586 -0.183727 -8.34758e-21)
(-0.116442 -0.181365 -1.8499e-19)
(-0.110475 -0.174303 -1.80087e-19)