/*--------------------------------*- C++ -*----------------------------------*\
  =========                 |
  \\      /  F ield         | OpenFOAM: The Open Source CFD Toolbox
   \\    /   O peration     | Website:  https://openfoam.org
    \\  /    A nd           | Version:  7
     \\/     M anipulation  |
\*---------------------------------------------------------------------------*/
FoamFile
{
    version     2.0;
    format      ascii;
    class       volScalarField;
    location    "10";
    object      p;
}
// * * * * * * * * * * * * * * * * * * * * * * * * * * * * * * * * * * * * * //

dimensions      [0 2 -2 0 0 0 0];

internalField   nonuniform List<scalar> 
12772
(
-0.292616
-0.29539
-0.29674
-0.297995
-0.299348
-0.300916
-0.30282
-0.305166
-0.308056
-0.311687
-0.292939
-0.29565
-0.296975
-0.29821
-0.299545
-0.301095
-0.302978
-0.305301
-0.308155
-0.311716
-0.293574
-0.296162
-0.297436
-0.298631
-0.299929
-0.301442
-0.303281
-0.305556
-0.308339
-0.311756
-0.294495
-0.296907
-0.298106
-0.29924
-0.300479
-0.301932
-0.303702
-0.305899
-0.308577
-0.311768
-0.295666
-0.297857
-0.298958
-0.300008
-0.301166
-0.302533
-0.304203
-0.306288
-0.30883
-0.311698
-0.297044
-0.298982
-0.299963
-0.300906
-0.301956
-0.303207
-0.304742
-0.306673
-0.309054
-0.311484
-0.298584
-0.300248
-0.30109
-0.301901
-0.302813
-0.303916
-0.305276
-0.307004
-0.309211
-0.311052
-0.30024
-0.301622
-0.302309
-0.302963
-0.303706
-0.304623
-0.305766
-0.307236
-0.309272
-0.310302
-0.301973
-0.303076
-0.303592
-0.304065
-0.304607
-0.305301
-0.306185
-0.307335
-0.309222
-0.309172
-0.303748
-0.304586
-0.30492
-0.305188
-0.305496
-0.305931
-0.306519
-0.307278
-0.308977
-0.308051
-0.305544
-0.306138
-0.306279
-0.306319
-0.306364
-0.306506
-0.30677
-0.307125
-0.308429
-0.306699
-0.30735
-0.307724
-0.307664
-0.307456
-0.307211
-0.307031
-0.306933
-0.30689
-0.307801
-0.304978
-0.309168
-0.309349
-0.309078
-0.308603
-0.308045
-0.307525
-0.307053
-0.306587
-0.307176
-0.302943
-0.311014
-0.311024
-0.310532
-0.309772
-0.308885
-0.308012
-0.307163
-0.306277
-0.306598
-0.300677
-0.312918
-0.312773
-0.312045
-0.310985
-0.309755
-0.308521
-0.307301
-0.306033
-0.306098
-0.298342
-0.314919
-0.314617
-0.313648
-0.312269
-0.310681
-0.309086
-0.307499
-0.305924
-0.305648
-0.296144
-0.317069
-0.3166
-0.315371
-0.313653
-0.311698
-0.309738
-0.307783
-0.306013
-0.305118
-0.294291
-0.319424
-0.318765
-0.31725
-0.315175
-0.31284
-0.310512
-0.308177
-0.306357
-0.304288
-0.292903
-0.322048
-0.321157
-0.319328
-0.316873
-0.314145
-0.311443
-0.308711
-0.306981
-0.30306
-0.292781
-0.325009
-0.323823
-0.321648
-0.31879
-0.315652
-0.312566
-0.309421
-0.30779
-0.301807
-0.297075
-0.328374
-0.32681
-0.324256
-0.320968
-0.317401
-0.313915
-0.310343
-0.308537
-0.301159
-0.307441
-0.332186
-0.33018
-0.327195
-0.323449
-0.319433
-0.315521
-0.311507
-0.309097
-0.30139
-0.305845
-0.336513
-0.333972
-0.330511
-0.326276
-0.321788
-0.317409
-0.312913
-0.309585
-0.301792
-0.302604
-0.341408
-0.33823
-0.334246
-0.329492
-0.324503
-0.319603
-0.314533
-0.310133
-0.301997
-0.299559
-0.346916
-0.342995
-0.338442
-0.333137
-0.32761
-0.322115
-0.31634
-0.310739
-0.301925
-0.296498
-0.353075
-0.348308
-0.343141
-0.33725
-0.331134
-0.324946
-0.318304
-0.311354
-0.301499
-0.29349
-0.359917
-0.354204
-0.348384
-0.341867
-0.335087
-0.32808
-0.320381
-0.311899
-0.3007
-0.290431
-0.367464
-0.360712
-0.354206
-0.347015
-0.339472
-0.331486
-0.322499
-0.312283
-0.299517
-0.287248
-0.375728
-0.367855
-0.360633
-0.352707
-0.344271
-0.335105
-0.324563
-0.312414
-0.297942
-0.283871
-0.384705
-0.375643
-0.367677
-0.358933
-0.349442
-0.338847
-0.326458
-0.312208
-0.295965
-0.280242
-0.394373
-0.38407
-0.375328
-0.365659
-0.354911
-0.342585
-0.328065
-0.311592
-0.29357
-0.276311
-0.404679
-0.393106
-0.38355
-0.372818
-0.360561
-0.346167
-0.329265
-0.310501
-0.290733
-0.272031
-0.415548
-0.402692
-0.392268
-0.380305
-0.366233
-0.349425
-0.329946
-0.308876
-0.287424
-0.267358
-0.426868
-0.412738
-0.401372
-0.387971
-0.371729
-0.352189
-0.330002
-0.306658
-0.283604
-0.262245
-0.43849
-0.423111
-0.410711
-0.395619
-0.376829
-0.354291
-0.329335
-0.303788
-0.279226
-0.256645
-0.450227
-0.43364
-0.420091
-0.403009
-0.381299
-0.355571
-0.32785
-0.300206
-0.27424
-0.25051
-0.461853
-0.444113
-0.429273
-0.409867
-0.384906
-0.355877
-0.325456
-0.295846
-0.268589
-0.243793
-0.473104
-0.454279
-0.43798
-0.415898
-0.387424
-0.355068
-0.322062
-0.290644
-0.262217
-0.23645
-0.483685
-0.463852
-0.4459
-0.420803
-0.388639
-0.353012
-0.317585
-0.284532
-0.255065
-0.22844
-0.493274
-0.472518
-0.452698
-0.424286
-0.388354
-0.349588
-0.31194
-0.277444
-0.247078
-0.219724
-0.50153
-0.47994
-0.458029
-0.426069
-0.386392
-0.344685
-0.30505
-0.269317
-0.238204
-0.210269
-0.508103
-0.485773
-0.46155
-0.425896
-0.382594
-0.338204
-0.296843
-0.260091
-0.228398
-0.200046
-0.512644
-0.489665
-0.462938
-0.423543
-0.376826
-0.330058
-0.287252
-0.249711
-0.21762
-0.189041
-0.514813
-0.491276
-0.461896
-0.418816
-0.368976
-0.320172
-0.276218
-0.238124
-0.205834
-0.177232
-0.514295
-0.490285
-0.458168
-0.411558
-0.358955
-0.308492
-0.263696
-0.225288
-0.192991
-0.16453
-0.510801
-0.486405
-0.451541
-0.40165
-0.346702
-0.29498
-0.249662
-0.211182
-0.179041
-0.150742
-0.504083
-0.479385
-0.44185
-0.389013
-0.332181
-0.279617
-0.234105
-0.195803
-0.163984
-0.135692
-0.493936
-0.46903
-0.428978
-0.373603
-0.31538
-0.262393
-0.217006
-0.179155
-0.147894
-0.119576
-0.480208
-0.455199
-0.412853
-0.355412
-0.296307
-0.243304
-0.198345
-0.161283
-0.130761
-0.10303
-0.4628
-0.437807
-0.393456
-0.33447
-0.274996
-0.222361
-0.178172
-0.142351
-0.112503
-0.085926
-0.441669
-0.416824
-0.370812
-0.310849
-0.251511
-0.199653
-0.156799
-0.122119
-0.0932817
-0.0681338
-0.416829
-0.392276
-0.344996
-0.284653
-0.225954
-0.175378
-0.134006
-0.100772
-0.0731906
-0.0496573
-0.388348
-0.36426
-0.316172
-0.255968
-0.198421
-0.149521
-0.109929
-0.0783969
-0.0523058
-0.0305784
-0.356348
-0.332953
-0.284606
-0.224782
-0.169017
-0.122185
-0.0846762
-0.055086
-0.0307036
-0.0110037
-0.321008
-0.298587
-0.250424
-0.191263
-0.137869
-0.0935035
-0.0583692
-0.0309338
-0.00846074
0.00898498
-0.282558
-0.261381
-0.213026
-0.156239
-0.105245
-0.0636303
-0.031136
-0.00604209
0.0143365
0.0292844
-0.241213
-0.221473
-0.173415
-0.119464
-0.071332
-0.0327319
-0.00310166
0.019494
0.0375331
0.0495027
-0.197226
-0.178854
-0.132327
-0.0811894
-0.0363091
-0.000972931
0.0256307
0.045604
0.0608455
0.0687698
-0.151018
-0.134172
-0.0897674
-0.0417054
-0.000380135
0.0314842
0.0549692
0.0722172
0.0840032
0.086621
-0.103002
-0.0877683
-0.0459363
-0.00129579
0.036226
0.0644602
0.0847642
0.099133
0.107048
0.105142
-0.0534948
-0.0400789
-0.00114004
0.0397565
0.0732691
0.0977495
0.114764
0.125953
0.129991
0.129237
-0.00291165
0.00849258
0.0442744
0.0811608
0.110503
0.131129
0.144702
0.152507
0.153479
0.153438
0.0483147
0.0575473
0.0899472
0.122619
0.147675
0.164371
0.174406
0.178865
0.177216
0.176292
0.0997474
0.106682
0.135516
0.16383
0.184527
0.19725
0.203701
0.204894
0.200771
0.198187
0.150947
0.15549
0.180622
0.204491
0.220803
0.229546
0.232419
0.230421
0.223817
0.219135
0.201478
0.203566
0.22491
0.244302
0.256249
0.261044
0.260384
0.255269
0.246175
0.239195
0.250906
0.250513
0.268033
0.282972
0.290616
0.291535
0.287416
0.279265
0.267699
0.258339
0.298813
0.295942
0.309653
0.320214
0.323662
0.320813
0.31334
0.302254
0.288268
0.276513
0.344788
0.339477
0.349448
0.355755
0.355157
0.348682
0.337987
0.324087
0.307766
0.293646
0.388443
0.38076
0.387108
0.389335
0.384877
0.374952
0.361195
0.344628
0.326082
0.309662
0.429408
0.419453
0.422343
0.420707
0.412613
0.399444
0.382812
0.363747
0.343107
0.324484
0.467336
0.45524
0.45488
0.44964
0.438171
0.421993
0.402697
0.381322
0.358742
0.33804
0.501908
0.48783
0.484471
0.475925
0.46137
0.442446
0.42072
0.397242
0.37289
0.350261
0.532834
0.516958
0.510887
0.499368
0.482047
0.460662
0.436761
0.411405
0.385467
0.361086
0.559853
0.542388
0.533927
0.5198
0.500057
0.47652
0.450715
0.423721
0.396394
0.370463
0.582738
0.563914
0.553415
0.537069
0.515273
0.48991
0.462493
0.43411
0.405605
0.378344
0.601298
0.581362
0.569201
0.551052
0.527588
0.500743
0.472017
0.442508
0.413044
0.384692
0.615375
0.59459
0.581163
0.561644
0.536914
0.508945
0.479225
0.448861
0.418665
0.389473
0.62485
0.60349
0.589209
0.568767
0.543186
0.514459
0.484069
0.45313
0.422441
0.39268
0.629641
0.607989
0.593276
0.572367
0.546354
0.517245
0.486517
0.455287
0.424357
0.394327
0.629706
0.608047
0.593329
0.572414
0.546395
0.517279
0.486545
0.455312
0.424379
0.394361
0.625043
0.603663
0.589366
0.568905
0.543304
0.514558
0.484149
0.453192
0.422489
0.39272
0.615687
0.594869
0.581416
0.561865
0.537101
0.509097
0.479343
0.448947
0.418722
0.389501
0.601715
0.581736
0.569537
0.551343
0.52783
0.500936
0.472161
0.442605
0.413099
0.384708
0.583244
0.564368
0.55382
0.537416
0.515556
0.49013
0.462651
0.434211
0.405654
0.37835
0.560428
0.542904
0.534386
0.520187
0.500368
0.476755
0.450879
0.423819
0.396436
0.370459
0.533458
0.517519
0.511383
0.499783
0.482375
0.460905
0.436924
0.411499
0.385503
0.361075
0.502561
0.488418
0.484989
0.476354
0.461704
0.442689
0.420879
0.397331
0.372922
0.350245
0.467998
0.455839
0.455408
0.450073
0.438504
0.422233
0.402853
0.381408
0.358772
0.338022
0.430063
0.420048
0.422867
0.421134
0.41294
0.399677
0.382962
0.36383
0.343137
0.324467
0.389076
0.381338
0.387618
0.38975
0.385193
0.375176
0.36134
0.344711
0.326113
0.309646
0.345387
0.340027
0.349936
0.356153
0.355459
0.348898
0.338128
0.32417
0.307801
0.293632
0.299368
0.296457
0.310112
0.32059
0.32395
0.32102
0.313478
0.302338
0.288306
0.276501
0.251412
0.250986
0.268459
0.283323
0.290887
0.291733
0.287551
0.279351
0.267741
0.258328
0.201928
0.203993
0.225299
0.244627
0.256503
0.261233
0.260517
0.255358
0.246222
0.239184
0.151341
0.155868
0.180973
0.204789
0.22104
0.229726
0.23255
0.230514
0.223872
0.219123
0.100084
0.10701
0.135828
0.1641
0.184747
0.197422
0.20383
0.204991
0.200838
0.198177
0.0485948
0.0578268
0.0902199
0.122862
0.147878
0.164535
0.174533
0.178966
0.177301
0.176299
-0.00268592
0.00872401
0.0445088
0.0813764
0.110689
0.131285
0.144828
0.152611
0.153588
0.153493
-0.0533204
-0.0398934
-0.000942487
0.0399459
0.0734398
0.097899
0.11489
0.126058
0.130122
0.129413
-0.102875
-0.0876263
-0.0457738
-0.00113156
0.036381
0.0646027
0.0848918
0.0992444
0.107196
0.105465
-0.150935
-0.13407
-0.0896378
-0.0415653
-0.000240659
0.031619
0.0550974
0.0723356
0.0841482
0.086905
-0.197183
-0.17879
-0.132228
-0.0810725
-0.0361852
-0.000847551
0.0257552
0.0457221
0.0609722
0.0689676
-0.241205
-0.221443
-0.173345
-0.11937
-0.0712237
-0.0326175
-0.00298518
0.0196054
0.0376429
0.0496465
-0.28258
-0.261378
-0.212984
-0.156166
-0.105152
-0.0635278
-0.0310296
-0.00593943
0.0144345
0.0294021
-0.321057
-0.29861
-0.250407
-0.19121
-0.137792
-0.093413
-0.0582731
-0.0308399
-0.00837176
0.00908593
-0.356419
-0.332999
-0.28461
-0.224747
-0.168954
-0.122106
-0.0845903
-0.0550009
-0.0306229
-0.0109164
-0.388438
-0.364325
-0.316195
-0.255949
-0.198372
-0.149454
-0.109853
-0.0783203
-0.0522329
-0.030502
-0.416935
-0.392357
-0.345036
-0.284649
-0.225918
-0.175322
-0.133939
-0.100703
-0.0731247
-0.0495889
-0.441786
-0.416918
-0.370866
-0.310859
-0.251487
-0.199606
-0.156742
-0.122059
-0.093222
-0.0680715
-0.462926
-0.437911
-0.393522
-0.334493
-0.274984
-0.222325
-0.178122
-0.142298
-0.112449
-0.0858687
-0.48034
-0.455311
-0.412929
-0.355445
-0.296305
-0.243277
-0.198304
-0.161235
-0.130711
-0.102977
-0.494071
-0.469146
-0.429061
-0.373645
-0.315386
-0.262375
-0.216972
-0.179113
-0.147849
-0.119527
-0.504219
-0.479504
-0.441939
-0.389062
-0.332195
-0.279605
-0.234077
-0.195766
-0.163943
-0.135647
-0.510937
-0.486524
-0.451633
-0.401705
-0.346722
-0.294974
-0.24964
-0.21115
-0.179004
-0.150701
-0.514428
-0.490403
-0.458262
-0.411617
-0.358981
-0.308492
-0.263679
-0.225261
-0.192957
-0.164492
-0.514942
-0.49139
-0.461989
-0.418878
-0.369006
-0.320178
-0.276205
-0.2381
-0.205804
-0.177197
-0.512767
-0.489775
-0.463029
-0.423607
-0.37686
-0.330067
-0.287244
-0.249691
-0.217594
-0.189009
-0.50822
-0.485878
-0.461639
-0.425961
-0.382631
-0.338217
-0.296839
-0.260075
-0.228374
-0.200017
-0.50164
-0.480039
-0.458114
-0.426132
-0.38643
-0.344701
-0.305049
-0.269304
-0.238183
-0.210242
-0.493376
-0.47261
-0.452779
-0.424348
-0.388393
-0.349606
-0.311941
-0.277434
-0.24706
-0.2197
-0.48378
-0.463937
-0.445976
-0.420863
-0.388678
-0.353032
-0.317588
-0.284524
-0.255049
-0.228418
-0.473191
-0.454357
-0.43805
-0.415955
-0.387463
-0.355089
-0.322068
-0.290638
-0.262203
-0.236431
-0.461932
-0.444184
-0.429337
-0.40992
-0.384945
-0.355899
-0.325464
-0.295843
-0.268577
-0.243776
-0.450299
-0.433705
-0.420149
-0.403058
-0.381336
-0.355594
-0.32786
-0.300204
-0.27423
-0.250495
-0.438555
-0.423169
-0.410765
-0.395664
-0.376864
-0.354314
-0.329346
-0.303789
-0.279219
-0.256631
-0.426926
-0.41279
-0.40142
-0.388012
-0.371763
-0.352212
-0.330014
-0.30666
-0.283599
-0.262234
-0.4156
-0.40274
-0.392311
-0.380343
-0.366264
-0.349447
-0.329958
-0.30888
-0.287421
-0.267349
-0.404725
-0.393148
-0.383588
-0.372852
-0.36059
-0.346188
-0.329278
-0.310506
-0.290732
-0.272024
-0.394414
-0.384108
-0.375363
-0.36569
-0.354937
-0.342606
-0.328079
-0.311598
-0.29357
-0.276305
-0.384742
-0.375677
-0.367708
-0.358961
-0.349466
-0.338866
-0.326472
-0.312215
-0.295966
-0.280238
-0.375761
-0.367885
-0.360661
-0.352732
-0.344292
-0.335123
-0.324576
-0.312422
-0.297945
-0.28387
-0.367493
-0.360739
-0.354231
-0.347038
-0.339492
-0.331502
-0.322512
-0.312292
-0.299522
-0.287249
-0.359943
-0.354229
-0.348408
-0.341888
-0.335105
-0.328095
-0.320393
-0.311908
-0.300706
-0.290434
-0.353098
-0.348331
-0.343163
-0.337269
-0.33115
-0.32496
-0.318316
-0.311364
-0.301507
-0.293495
-0.346937
-0.343016
-0.338461
-0.333154
-0.327625
-0.322128
-0.316351
-0.310749
-0.301934
-0.296505
-0.341428
-0.338249
-0.334264
-0.329508
-0.324517
-0.319615
-0.314544
-0.310144
-0.302008
-0.299567
-0.336531
-0.333991
-0.330528
-0.326291
-0.321801
-0.317421
-0.312923
-0.309596
-0.301803
-0.302615
-0.332203
-0.330198
-0.327212
-0.323463
-0.319445
-0.315531
-0.311517
-0.309108
-0.301402
-0.305859
-0.328391
-0.326827
-0.324271
-0.320981
-0.317413
-0.313925
-0.310353
-0.308549
-0.301172
-0.307459
-0.325026
-0.32384
-0.321664
-0.318804
-0.315664
-0.312576
-0.309431
-0.307802
-0.301821
-0.297094
-0.322065
-0.321174
-0.319343
-0.316887
-0.314157
-0.311454
-0.308722
-0.306993
-0.303076
-0.292799
-0.319441
-0.318781
-0.317266
-0.315189
-0.312852
-0.310524
-0.308189
-0.30637
-0.304306
-0.292922
-0.317087
-0.316617
-0.315387
-0.313667
-0.311711
-0.309751
-0.307795
-0.306028
-0.305138
-0.294311
-0.314937
-0.314634
-0.313664
-0.312283
-0.310695
-0.309099
-0.307512
-0.30594
-0.305669
-0.296166
-0.312936
-0.31279
-0.312061
-0.311
-0.309769
-0.308535
-0.307316
-0.30605
-0.30612
-0.298366
-0.311033
-0.311042
-0.310549
-0.309787
-0.3089
-0.308026
-0.307179
-0.306296
-0.306621
-0.300703
-0.309187
-0.309366
-0.309094
-0.308618
-0.30806
-0.30754
-0.307069
-0.306606
-0.3072
-0.302971
-0.307369
-0.307741
-0.30768
-0.307471
-0.307226
-0.307047
-0.306951
-0.30691
-0.307825
-0.305006
-0.305563
-0.306154
-0.306295
-0.306334
-0.306379
-0.306522
-0.306787
-0.307145
-0.308453
-0.306728
-0.303767
-0.304602
-0.304935
-0.305203
-0.305511
-0.305947
-0.306537
-0.307298
-0.309002
-0.30808
-0.30199
-0.303091
-0.303607
-0.304079
-0.304621
-0.305317
-0.306203
-0.307355
-0.309246
-0.309198
-0.300256
-0.301636
-0.302323
-0.302976
-0.30372
-0.304638
-0.305783
-0.307255
-0.309295
-0.310328
-0.298598
-0.300261
-0.301103
-0.301914
-0.302826
-0.303929
-0.305291
-0.307021
-0.309232
-0.311077
-0.297057
-0.298994
-0.299975
-0.300917
-0.301967
-0.30322
-0.304755
-0.306689
-0.309073
-0.311507
-0.295677
-0.297867
-0.298968
-0.300017
-0.301176
-0.302544
-0.304215
-0.306302
-0.308846
-0.311718
-0.294504
-0.296915
-0.298114
-0.299247
-0.300487
-0.301941
-0.303711
-0.30591
-0.30859
-0.311784
-0.293581
-0.296168
-0.297442
-0.298637
-0.299935
-0.301448
-0.303288
-0.305564
-0.308348
-0.311768
-0.292943
-0.295654
-0.296978
-0.298214
-0.299548
-0.301099
-0.302982
-0.305306
-0.308161
-0.311723
-0.292617
-0.295391
-0.296741
-0.297996
-0.299349
-0.300917
-0.302821
-0.305168
-0.308058
-0.311689
-0.315911
-0.320031
-0.324836
-0.330332
-0.336552
-0.343497
-0.351133
-0.359376
-0.368084
-0.37704
-0.385942
-0.394391
-0.401881
-0.407797
-0.411434
-0.411988
-0.408465
-0.399872
-0.385418
-0.364278
-0.335993
-0.300649
-0.259082
-0.213001
-0.164745
-0.117023
-0.0724087
-0.0329931
-7.83024e-05
0.0257507
0.0444895
0.0568988
0.063512
0.0658948
0.0642174
0.0605692
0.0539986
0.0473991
0.0378593
0.0300542
0.0177254
0.00920694
-0.316059
-0.320153
-0.324957
-0.330458
-0.336689
-0.343652
-0.351313
-0.359589
-0.368337
-0.37734
-0.386298
-0.394811
-0.402373
-0.408371
-0.412096
-0.412746
-0.409329
-0.400854
-0.386508
-0.365464
-0.337249
-0.301936
-0.260349
-0.214203
-0.165845
-0.117999
-0.0732566
-0.033722
-0.000696561
0.0252297
0.0440519
0.0565326
0.0632058
0.0656396
0.0640057
0.0603938
0.0538559
0.0472823
0.0377699
0.029982
0.0176833
0.00917324
-0.316328
-0.320371
-0.32517
-0.330682
-0.336934
-0.343931
-0.351639
-0.359976
-0.3688
-0.377895
-0.38696
-0.395596
-0.403299
-0.409454
-0.413349
-0.414186
-0.410977
-0.402729
-0.388596
-0.367744
-0.33967
-0.304424
-0.262804
-0.21654
-0.167989
-0.119911
-0.0749254
-0.0351591
-0.00192088
0.0241942
0.0431798
0.0558009
0.0625932
0.0651284
0.0635813
0.0600422
0.05357
0.0470484
0.0375911
0.0298375
0.0175993
0.00910621
-0.316663
-0.320632
-0.325419
-0.330945
-0.337225
-0.344267
-0.352039
-0.36046
-0.36939
-0.378612
-0.387827
-0.396638
-0.40454
-0.410918
-0.415059
-0.416163
-0.413255
-0.405335
-0.391515
-0.370948
-0.34309
-0.307959
-0.26631
-0.219898
-0.171089
-0.122695
-0.077374
-0.0372732
-0.00373611
0.0226512
0.0418747
0.0547029
0.0616719
0.0643588
0.0629425
0.059513
0.0531402
0.0466969
0.0373231
0.0296212
0.0174742
0.00900682
-0.316992
-0.320866
-0.325632
-0.331171
-0.33748
-0.344573
-0.352419
-0.360939
-0.369993
-0.379369
-0.388768
-0.397792
-0.405939
-0.412597
-0.417048
-0.418489
-0.415961
-0.408458
-0.395043
-0.374853
-0.347292
-0.312337
-0.270685
-0.224125
-0.175029
-0.126271
-0.0805273
-0.0400306
-0.00612008
0.0206118
0.0401408
0.0532385
0.0604406
0.063329
0.0620876
0.0588052
0.0525664
0.0462281
0.0369667
0.029334
0.0173093
0.00887655
-0.31724
-0.320996
-0.325729
-0.331278
-0.337611
-0.344753
-0.352674
-0.361298
-0.370488
-0.380032
-0.389634
-0.398899
-0.407326
-0.414304
-0.419116
-0.420951
-0.418869
-0.411858
-0.398934
-0.37921
-0.35203
-0.317328
-0.275724
-0.229053
-0.179686
-0.130524
-0.0843024
-0.0433882
-0.00904389
0.0180921
0.0379859
0.051411
0.0588996
0.0620384
0.0610162
0.0579186
0.0518488
0.0456426
0.0365233
0.0289771
0.0171059
0.00871734
-0.317344
-0.320952
-0.32564
-0.331187
-0.337536
-0.344717
-0.352706
-0.361429
-0.370752
-0.380467
-0.390281
-0.399803
-0.408529
-0.415857
-0.421067
-0.423342
-0.421757
-0.415301
-0.402945
-0.383768
-0.357057
-0.322698
-0.281227
-0.234511
-0.18491
-0.135257
-0.0886875
-0.0472865
-0.0124717
0.0151145
0.0354234
0.0492276
0.0570533
0.0604895
0.05973
0.0568547
0.0509892
0.0449422
0.0359946
0.0285527
0.0168659
0.00853156
-0.317312
-0.32067
-0.325307
-0.33084
-0.337187
-0.34439
-0.352431
-0.361238
-0.370683
-0.380561
-0.390583
-0.400363
-0.409399
-0.41709
-0.422723
-0.425477
-0.424423
-0.418569
-0.406856
-0.388302
-0.362148
-0.328246
-0.28698
-0.24029
-0.190411
-0.140552
-0.0935456
-0.0516638
-0.0163613
0.0117078
0.0324724
0.0467012
0.0549102
0.0586884
0.0582337
0.0556173
0.0499908
0.0441297
0.0353835
0.0280634
0.0165911
0.00832195
-0.317219
-0.320104
-0.324704
-0.330199
-0.336521
-0.343722
-0.351789
-0.360657
-0.370202
-0.380225
-0.39044
-0.400473
-0.409814
-0.417875
-0.423943
-0.427198
-0.426693
-0.421484
-0.410475
-0.39261
-0.367107
-0.333794
-0.292672
-0.246179
-0.196278
-0.146177
-0.0987913
-0.0564554
-0.0206642
0.00790714
0.0291584
0.0438502
0.0524841
0.0566453
0.0565352
0.054213
0.0488589
0.0432096
0.0346935
0.0275124
0.0162837
0.00809148
-0.316277
-0.319456
-0.323822
-0.329247
-0.335521
-0.342687
-0.350751
-0.35965
-0.369266
-0.379406
-0.389787
-0.400064
-0.409692
-0.418116
-0.424621
-0.428389
-0.428437
-0.423946
-0.413609
-0.396488
-0.371695
-0.338943
-0.298438
-0.252132
-0.202276
-0.152028
-0.104341
-0.0615928
-0.0253273
0.00375329
0.0255126
0.0406984
0.0497932
0.0543745
0.0546458
0.0526505
0.0476007
0.0421879
0.033929
0.026904
0.0159461
0.00784324
-0.315275
-0.318566
-0.322678
-0.328007
-0.334202
-0.341296
-0.349318
-0.35821
-0.36786
-0.378085
-0.38861
-0.399075
-0.408983
-0.417754
-0.424684
-0.428958
-0.429538
-0.425745
-0.416208
-0.399874
-0.375865
-0.343802
-0.303916
-0.257966
-0.208286
-0.15801
-0.11011
-0.0670054
-0.0302939
-0.000708694
0.021571
0.0372741
0.0468601
0.0518938
0.0525797
0.0509412
0.0462249
0.0410716
0.0330954
0.0262427
0.0155806
0.00758034
-0.314225
-0.317497
-0.32132
-0.32652
-0.332598
-0.339577
-0.347516
-0.35636
-0.366002
-0.376269
-0.386897
-0.397527
-0.407679
-0.416774
-0.424116
-0.428896
-0.430204
-0.426948
-0.418148
-0.402636
-0.379469
-0.348189
-0.309014
-0.263569
-0.214207
-0.164026
-0.116014
-0.0726234
-0.0355058
-0.00543099
0.0173726
0.033609
0.0437105
0.0492239
0.0503534
0.0490983
0.0447421
0.0398691
0.0321987
0.0255336
0.01519
0.00730578
-0.313165
-0.316347
-0.319813
-0.32484
-0.330761
-0.337581
-0.345391
-0.354143
-0.363732
-0.373997
-0.384683
-0.395438
-0.405795
-0.415181
-0.422906
-0.428167
-0.430021
-0.427461
-0.419402
-0.404723
-0.382433
-0.352011
-0.313649
-0.268848
-0.219945
-0.169993
-0.121979
-0.0783803
-0.040906
-0.0103656
0.0129575
0.0297365
0.0403718
0.0463872
0.0479851
0.0471364
0.0431635
0.0385894
0.0312453
0.0247823
0.0147769
0.00702236
-0.312187
-0.315202
-0.318222
-0.32303
-0.328751
-0.335365
-0.343003
-0.351617
-0.361107
-0.371322
-0.382018
-0.392852
-0.403369
-0.413004
-0.421075
-0.426783
-0.429166
-0.427269
-0.41995
-0.406101
-0.38471
-0.35521
-0.317754
-0.273729
-0.225427
-0.175838
-0.127936
-0.0842155
-0.0464407
-0.0154656
0.00836622
0.0256906
0.0368726
0.043407
0.0454938
0.0450707
0.0415013
0.0372421
0.0302422
0.0239942
0.0143443
0.00673264
-0.311354
-0.314127
-0.316614
-0.321155
-0.326627
-0.332988
-0.340412
-0.348844
-0.358189
-0.368306
-0.378961
-0.389823
-0.40045
-0.410285
-0.418655
-0.424772
-0.427649
-0.426374
-0.419777
-0.406751
-0.386273
-0.357744
-0.321279
-0.278155
-0.23059
-0.181496
-0.133819
-0.0900646
-0.0520501
-0.0206782
0.00364429
0.0215097
0.0332444
0.0403091
0.0429
0.0429174
0.0397679
0.0358369
0.0291963
0.0231749
0.0138948
0.00643886
-0.310694
-0.313141
-0.315033
-0.319265
-0.324436
-0.3305
-0.33767
-0.34588
-0.355035
-0.365006
-0.37557
-0.386407
-0.397088
-0.407068
-0.415683
-0.422161
-0.425495
-0.424793
-0.418885
-0.406664
-0.387105
-0.359584
-0.32418
-0.282063
-0.235356
-0.186879
-0.139539
-0.0958421
-0.0576576
-0.0259375
-0.00115373
0.0172378
0.0295225
0.0371211
0.0402254
0.0406931
0.037976
0.0343836
0.0281143
0.0223297
0.0134311
0.00614291
-0.310159
-0.312175
-0.313482
-0.317392
-0.322212
-0.327943
-0.33483
-0.342783
-0.351708
-0.361487
-0.371909
-0.382666
-0.393343
-0.403407
-0.412204
-0.41901
-0.422742
-0.422558
-0.417295
-0.40585
-0.387203
-0.360715
-0.326426
-0.28541
-0.239678
-0.19194
-0.145051
-0.101511
-0.0632324
-0.0312178
-0.00600521
0.0128958
0.025726
0.033861
0.0374857
0.0384125
0.0361374
0.0328923
0.0270034
0.0214645
0.012956
0.00584656
-0.309646
-0.311122
-0.311945
-0.315558
-0.319973
-0.325342
-0.331922
-0.339589
-0.348247
-0.35779
-0.36802
-0.378643
-0.389257
-0.399344
-0.408257
-0.415478
-0.419365
-0.419662
-0.415019
-0.404346
-0.386637
-0.361247
-0.328176
-0.288392
-0.243781
-0.196919
-0.150593
-0.107283
-0.0689507
-0.0366524
-0.0110037
0.00842532
0.0218219
0.0305151
0.0346785
0.0360805
0.0342598
0.0313725
0.0258714
0.0205869
0.0124737
0.00555202
-0.309914
-0.309813
-0.310372
-0.313706
-0.317621
-0.322581
-0.328813
-0.336147
-0.344487
-0.353735
-0.363711
-0.374135
-0.384625
-0.394677
-0.403638
-0.410627
-0.415186
-0.415955
-0.411968
-0.402144
-0.385489
-0.361349
-0.329667
-0.291283
-0.247937
-0.20206
-0.15636
-0.113304
-0.0749091
-0.0422998
-0.0161793
0.00381336
0.017809
0.0270864
0.0318101
0.033702
0.0323489
0.0298288
0.0247237
0.0197004
0.0119883
0.00526042
-0.309643
-0.306777
-0.308289
-0.311584
-0.315096
-0.319713
-0.325624
-0.332642
-0.340661
-0.349591
-0.359267
-0.369428
-0.379706
-0.389606
-0.398503
-0.40572
-0.410725
-0.4117
-0.408171
-0.399002
-0.383192
-0.360082
-0.329575
-0.292419
-0.250238
-0.205353
-0.160404
-0.117827
-0.0796405
-0.0470092
-0.0206741
-0.000344509
0.0140852
0.0238138
0.0290208
0.0313385
0.0304315
0.0282539
0.0235528
0.0187837
0.0114927
0.00496494
-0.294306
-0.297556
-0.304685
-0.309336
-0.31305
-0.317644
-0.323463
-0.330352
-0.338198
-0.34692
-0.356369
-0.366288
-0.376318
-0.385983
-0.39471
-0.401706
-0.406143
-0.406972
-0.403285
-0.394022
-0.37826
-0.35542
-0.325479
-0.289204
-0.248181
-0.204628
-0.16104
-0.119719
-0.0825563
-0.0506724
-0.0247477
-0.00457142
0.00998553
0.0199593
0.0255891
0.0283033
0.0279177
0.0261237
0.0219614
0.0175081
0.0108085
0.00456296
-0.29442
-0.295925
-0.302237
-0.306842
-0.310451
-0.314832
-0.320454
-0.32712
-0.334634
-0.342889
-0.351746
-0.360965
-0.370192
-0.378944
-0.386661
-0.392685
-0.396188
-0.396209
-0.391848
-0.382195
-0.366463
-0.344189
-0.315429
-0.280924
-0.242133
-0.20105
-0.159918
-0.120808
-0.0854416
-0.0548673
-0.0297304
-0.00991421
0.00468417
0.014923
0.0210514
0.0242867
0.0245581
0.0233034
0.0198253
0.015844
0.00987487
0.00406903
-0.291338
-0.293029
-0.297689
-0.301989
-0.30584
-0.3103
-0.315808
-0.322232
-0.32937
-0.337101
-0.34529
-0.353708
-0.362019
-0.369766
-0.376432
-0.381384
-0.383867
-0.383019
-0.378022
-0.368094
-0.352578
-0.331114
-0.303806
-0.271346
-0.235035
-0.196634
-0.158128
-0.121366
-0.0879042
-0.0587289
-0.0344623
-0.0150768
-0.000507229
0.0099428
0.0165179
0.0202477
0.0211488
0.0204375
0.0176327
0.0141541
0.00890405
0.0035968
-0.285021
-0.287892
-0.29126
-0.294946
-0.298938
-0.303548
-0.308956
-0.315086
-0.321793
-0.328958
-0.336443
-0.344035
-0.351419
-0.358178
-0.363803
-0.367726
-0.369273
-0.367678
-0.362212
-0.352204
-0.337116
-0.316675
-0.291015
-0.260767
-0.227078
-0.191479
-0.155703
-0.121381
-0.0899097
-0.0622141
-0.038896
-0.0200108
-0.00553688
0.00507216
0.012046
0.0162417
0.0177447
0.0175715
0.015426
0.0124653
0.00792133
0.00314788
-0.275806
-0.280257
-0.283144
-0.286237
-0.290142
-0.294807
-0.300092
-0.30589
-0.312112
-0.318665
-0.325418
-0.332165
-0.338616
-0.344392
-0.349041
-0.352035
-0.352759
-0.350558
-0.344798
-0.334911
-0.320457
-0.301235
-0.277391
-0.249484
-0.218503
-0.185762
-0.152753
-0.120903
-0.0914615
-0.0652929
-0.0429832
-0.0246614
-0.0103511
0.000359105
0.00767601
0.0123014
0.0143712
0.014725
0.0132192
0.010787
0.00693299
0.00271859
-0.264541
-0.270477
-0.273467
-0.276212
-0.27993
-0.284539
-0.289672
-0.295132
-0.300852
-0.306778
-0.312792
-0.318706
-0.324252
-0.329096
-0.332844
-0.335004
-0.335028
-0.332365
-0.326479
-0.316889
-0.303236
-0.285369
-0.263429
-0.2379
-0.209619
-0.179698
-0.149409
-0.119998
-0.092575
-0.0679489
-0.0466884
-0.0289843
-0.0149031
-0.00415202
0.00344767
0.00846038
0.0110553
0.0119188
0.0110277
0.00912926
0.00594601
0.00230773
-0.252308
-0.259227
-0.262565
-0.265226
-0.268779
-0.273253
-0.278198
-0.283327
-0.288565
-0.293884
-0.299192
-0.30432
-0.309027
-0.313019
-0.315952
-0.317386
-0.316841
-0.313856
-0.307983
-0.298817
-0.286063
-0.269604
-0.249567
-0.226358
-0.200678
-0.173458
-0.145781
-0.118724
-0.0932719
-0.0701782
-0.0499912
-0.0329499
-0.0191587
-0.00842665
-0.000606077
0.00474749
0.00782198
0.00917275
0.0088678
0.00750201
0.00496834
0.00191484
-0.239689
-0.247137
-0.250865
-0.253613
-0.257062
-0.261369
-0.266096
-0.270907
-0.275704
-0.280467
-0.285131
-0.28955
-0.293509
-0.296751
-0.298974
-0.299796
-0.298808
-0.295624
-0.289869
-0.281204
-0.269384
-0.254316
-0.236106
-0.215093
-0.191855
-0.167171
-0.141953
-0.117132
-0.0935784
-0.0719877
-0.0528838
-0.0365409
-0.0230944
-0.0124392
-0.00445919
0.00118665
0.00469306
0.00650412
0.00675407
0.00591409
0.00400714
0.00153932
-0.227034
-0.2347
-0.238747
-0.241644
-0.245041
-0.24918
-0.253677
-0.258189
-0.262592
-0.266866
-0.270965
-0.274765
-0.27808
-0.280684
-0.282313
-0.282639
-0.281325
-0.278045
-0.272482
-0.264354
-0.253458
-0.239718
-0.22322
-0.204242
-0.183259
-0.160918
-0.137987
-0.115268
-0.0935227
-0.0733911
-0.0553679
-0.0397498
-0.0266959
-0.0161717
-0.0080914
-0.0022026
0.00168713
0.00392803
0.00469965
0.0043733
0.00306869
0.00118063
-0.214578
-0.222235
-0.22649
-0.229531
-0.2329
-0.236884
-0.241156
-0.245388
-0.249445
-0.2533
-0.256915
-0.26019
-0.262963
-0.265037
-0.266186
-0.266131
-0.264596
-0.261302
-0.255983
-0.248404
-0.238399
-0.225902
-0.210982
-0.193866
-0.174942
-0.154749
-0.133928
-0.113166
-0.0931324
-0.0744067
-0.0574522
-0.0425765
-0.0299556
-0.0196117
-0.0114871
-0.00540426
-0.00117975
0.00145781
0.00271645
0.00288671
0.00215858
0.000838554
-0.202427
-0.209929
-0.21429
-0.217436
-0.220779
-0.224617
-0.228677
-0.232653
-0.236406
-0.239904
-0.243114
-0.245951
-0.248279
-0.249919
-0.2507
-0.250369
-0.248699
-0.245456
-0.240415
-0.233384
-0.224223
-0.212877
-0.1994
-0.183977
-0.166925
-0.148688
-0.129803
-0.110859
-0.0924349
-0.0750558
-0.0591495
-0.0450261
-0.0328713
-0.0227515
-0.0146346
-0.00840526
-0.00389373
-0.00089472
0.000815234
0.00146088
0.00128177
0.000513137
-0.190642
-0.197902
-0.202283
-0.205484
-0.208787
-0.212486
-0.216345
-0.220087
-0.223573
-0.226767
-0.229639
-0.232121
-0.234094
-0.235412
-0.235896
-0.235371
-0.233637
-0.230495
-0.225756
-0.219262
-0.210896
-0.200612
-0.188451
-0.174563
-0.159206
-0.142748
-0.125636
-0.108372
-0.0914567
-0.0753609
-0.0604762
-0.0471075
-0.0354446
-0.0255873
-0.0175253
-0.0111951
-0.00644293
-0.00311907
-0.000994302
0.000101913
0.000442754
0.000204689
-0.179277
-0.186234
-0.190565
-0.193773
-0.197017
-0.200575
-0.204243
-0.207768
-0.211018
-0.213952
-0.216545
-0.218736
-0.220426
-0.221486
-0.221769
-0.221123
-0.219382
-0.216379
-0.211959
-0.205987
-0.198368