/*--------------------------------*- C++ -*----------------------------------*\
  =========                 |
  \\      /  F ield         | OpenFOAM: The Open Source CFD Toolbox
   \\    /   O peration     | Website:  https://openfoam.org
    \\  /    A nd           | Version:  7
     \\/     M anipulation  |
\*---------------------------------------------------------------------------*/
FoamFile
{
    version     2.0;
    format      ascii;
    class       volVectorField;
    location    "15";
    object      U;
}
// * * * * * * * * * * * * * * * * * * * * * * * * * * * * * * * * * * * * * //

dimensions      [0 1 -1 0 0 0 0];

internalField   nonuniform List<vector> 
6386
(
(-0.00373395 0.00597009 5.33404e-20)
(-0.00319482 0.00501811 1.21782e-19)
(-0.0024108 0.00391385 5.79069e-20)
(-0.00135445 0.00267337 -2.67884e-19)
(0.00643748 0.00183114 1.79821e-19)
(-5.82323e-07 0.00131676 8.64375e-21)
(0.011184 -0.00155386 -1.83879e-19)
(0.001673 -0.000131761 -2.10155e-20)
(0.0167949 -0.00510874 2.1601e-19)
(0.0450929 -0.0102716 -2.20602e-20)
(0.00368492 -0.00164381 -1.31345e-19)
(0.0233088 -0.00875707 2.00377e-19)
(0.056863 -0.0149879 -1.19475e-19)
(0.102157 -0.0206728 1.70016e-19)
(0.00604998 -0.00318731 2.46989e-19)
(0.0307538 -0.0124129 -2.82973e-19)
(0.0700252 -0.0196098 -6.70051e-20)
(0.121508 -0.0254501 -3.20191e-19)
(0.00877918 -0.00472723 -5.04268e-20)
(0.039147 -0.0159825 7.8816e-21)
(0.084583 -0.0239945 -1.62215e-19)
(0.142572 -0.0297999 -5.41171e-20)
(0.211963 -0.0328451 2.41729e-19)
(0.0118798 -0.00622631 2.82995e-19)
(0.0484954 -0.0193664 -1.63634e-19)
(0.100524 -0.027991 1.68228e-19)
(0.165297 -0.0335262 6.13141e-20)
(0.241513 -0.0356032 -9.26234e-20)
(0.327809 -0.0340164 -4.37287e-20)
(0.0153555 -0.00764591 -1.51375e-19)
(0.0587948 -0.0224616 3.889e-19)
(0.117818 -0.0314441 -1.13046e-19)
(0.18961 -0.0364309 2.93579e-20)
(0.272697 -0.0372552 5.53444e-19)
(0.365466 -0.0339327 -2.48874e-19)
(0.466087 -0.0268403 -2.32476e-19)
(0.0192063 -0.00894664 6.83649e-20)
(0.0700299 -0.0251639 3.74535e-20)
(0.136419 -0.0341994 4.70441e-20)
(0.215419 -0.0383211 -8.23116e-20)
(0.305361 -0.037581 -9.8891e-20)
(0.404358 -0.032228 -3.90096e-19)
(0.51021 -0.0228931 5.38604e-20)
(0.620474 -0.0104353 6.83603e-20)
(0.0234283 -0.0100888 -5.70178e-20)
(0.0821737 -0.0273699 -4.89331e-19)
(0.15626 -0.0361061 3.45052e-19)
(0.242604 -0.0390142 1.61963e-19)
(0.339326 -0.0363822 -2.61993e-19)
(0.444246 -0.0287056 -4.05045e-20)
(0.554784 -0.0168727 3.17275e-19)
(0.668033 -0.00198107 5.43835e-19)
(0.780966 0.014865 1.52339e-20)
(0.0280134 -0.0110328 -8.33725e-20)
(0.095186 -0.0289781 1.74982e-19)
(0.177256 -0.0370209 -4.44115e-19)
(0.271023 -0.0383431 -1.63718e-19)
(0.374384 -0.0334872 1.77853e-19)
(0.484857 -0.0232116 9.98872e-20)
(0.599494 -0.00867108 -3.64194e-19)
(0.714963 0.00879638 -2.65044e-19)
(0.827774 0.027868 -3.45935e-19)
(0.931542 0.0405208 2.12302e-19)
(0.0329487 -0.0117395 3.16e-20)
(0.109014 -0.0298909 3.14217e-19)
(0.199301 -0.0368099 1.63597e-19)
(0.300506 -0.0361587 1.82384e-19)
(0.410298 -0.0287543 -6.61306e-20)
(0.525894 -0.0156362 3.24253e-19)
(0.643993 0.0017619 -2.90681e-20)
(0.760903 0.0218544 1.93433e-19)
(0.872785 0.0430922 3.85461e-19)
(0.973649 0.0581291 -1.79975e-19)
(0.0382162 -0.0121705 -8.98099e-20)
(0.123589 -0.0300156 -1.91297e-19)
(0.222265 -0.0353511 -1.26269e-19)
(0.330856 -0.0323331 1.26674e-19)
(0.446804 -0.0220739 2.63216e-20)
(0.567029 -0.00591276 -2.76416e-19)
(0.687915 0.0144241 6.56957e-20)
(0.805476 0.0370969 8.53137e-20)
(0.915649 0.060329 5.53607e-20)
(1.01291 0.0774568 6.68043e-20)
(0.0437924 -0.0122887 6.10507e-20)
(0.138829 -0.0292657 1.69291e-19)
(0.246 -0.0325367 1.73977e-19)
(0.361855 -0.0267619 -2.2301e-19)
(0.483611 -0.0133694 -1.64905e-19)
(0.607916 0.00598339 1.03322e-19)
(0.73088 0.0292668 1.75315e-19)
(0.848305 0.054385 -4.56685e-20)
(0.956029 0.0793439 -1.98082e-19)
(1.04905 0.0981587 -5.52529e-20)
(0.0496475 -0.0120585 3.87806e-20)
(0.154638 -0.0275628 -1.00536e-20)
(0.270337 -0.0282749 -7.81954e-20)
(0.393258 -0.0193654 -1.16021e-20)
(0.520412 -0.00259798 -1.29976e-20)
(0.648197 0.0200365 1.29885e-19)
(0.772508 0.0461994 -2.17083e-19)
(0.889027 0.073545 -1.41205e-19)
(0.993616 0.0998857 -4.84523e-21)
(1.08186 0.119908 1.00218e-19)
(0.0557456 -0.011447 1.75753e-19)
(0.170904 -0.0248374 -3.7464e-20)
(0.295086 -0.0224914 -6.10089e-20)
(0.424805 -0.0100908 -8.62173e-21)
(0.556881 0.0102488 -3.01077e-20)
(0.687507 0.0361925 -1.41778e-19)
(0.812427 0.0650944 9.30541e-20)
(0.927302 0.0943761 -1.34484e-19)
(1.02815 0.121694 9.05958e-20)
(1.11117 0.1424 2.5762e-19)
(0.0620445 -0.0104242 -7.64557e-20)
(0.1875 -0.0210315 -1.6728e-19)
(0.320042 -0.015132 -2.14463e-20)
(0.456217 0.00108688 2.16139e-19)
(0.592686 0.0251455 7.22366e-20)
(0.725484 0.0543613 1.63168e-19)
(0.850284 0.0857923 2.8164e-19)
(0.962825 0.116656 6.53205e-20)
(1.0594 0.144504 7.00279e-20)
(1.13688 0.165352 -1.90171e-19)
(0.0684956 -0.00896397 6.19437e-21)
(0.204287 -0.0160994 1.13818e-19)
(0.344984 -0.00616374 1.22084e-19)
(0.487205 0.0141638 -1.37955e-19)
(0.62749 0.0420331 1.8088e-19)
(0.761777 0.074419 -1.65397e-19)
(0.88575 0.108106 -3.83681e-20)
(0.995331 0.140149 -6.10012e-20)
(1.0872 0.168055 -6.6665e-20)
(1.15894 0.188507 -9.96867e-20)
(0.0750445 -0.00704518 -7.4222e-21)
(0.221115 -0.0100098 -1.11452e-20)
(0.36968 0.00442358 -8.56524e-21)
(0.517474 0.0291066 -7.47026e-21)
(0.660962 0.0608204 3.60609e-20)
(0.79605 0.0962116 4.339e-20)
(0.918527 0.131826 -4.81804e-20)
(1.0246 0.164607 -3.645e-20)
(1.11144 0.192091 -4.16097e-20)
(1.17735 0.211631 1.30604e-19)
(0.0816315 -0.00465209 -1.10509e-20)
(0.237823 -0.00274704 2.9166e-20)
(0.393889 0.0166159 4.81732e-20)
(0.546726 0.0458522 -1.57997e-20)
(0.692776 0.0813847 -1.19866e-19)
(0.827992 0.119558 -9.93732e-20)
(0.948355 0.156724 -4.32305e-21)
(1.05046 0.18978 8.4021e-20)
(1.13205 0.216366 -1.36618e-20)
(1.19216 0.234516 -3.60587e-20)
(0.0881921 -0.00177537 -2.72609e-20)
(0.254243 0.00568714 1.54592e-20)
(0.417366 0.030374 -1.7661e-20)
(0.574668 0.0643082 4.06726e-21)
(0.722626 0.103574 1.4838e-20)
(0.857318 0.144252 2.17601e-20)
(0.975014 0.18256 -4.19068e-21)
(1.07279 0.215416 -5.01145e-20)
(1.14901 0.240646 3.08755e-21)
(1.20345 0.256976 1.71944e-20)
(0.094658 0.00158723 -8.66575e-21)
(0.270202 0.0152729 -8.77891e-23)
(0.439865 0.0456332 2.53552e-21)
(0.601012 0.0843533 -2.56435e-21)
(0.750221 0.127211 1.89801e-20)
(0.883777 0.17007 6.75141e-21)
(0.998326 0.209081 4.0057e-21)
(1.0915 0.241265 -1.71112e-21)
(1.16235 0.26471 -7.44261e-21)
(1.21134 0.278845 -1.62478e-20)
(0.100958 0.00543034 -3.98382e-21)
(0.285524 0.0259716 -1.29434e-20)
(0.461144 0.0623033 1.03304e-20)
(0.625486 0.105839 -9.72555e-22)
(0.775299 0.152092 1.11029e-20)
(0.907153 0.19677 1.07657e-20)
(1.01815 0.236033 9.14397e-21)
(1.10655 0.267085 -7.59532e-21)
(1.17211 0.288353 -8.02701e-21)
(1.21596 0.299976 -1.29753e-20)
(0.10702 0.00974046 -1.35209e-20)
(0.300034 0.0377249 -1.45227e-20)
(0.480967 0.080269 -9.84075e-21)
(0.647836 0.128591 -1.01924e-20)
(0.797624 0.177993 2.24622e-20)
(0.927267 0.224097 3.51616e-20)
(1.0344 0.263158 -4.78195e-21)
(1.11795 0.292641 -3.70128e-20)
(1.1784 0.311383 -6.26414e-21)
(1.21747 0.32024 -5.44043e-21)
(0.112771 0.0144958 -1.44073e-20)
(0.313561 0.0504554 7.79259e-21)
(0.499111 0.0993906 2.2604e-20)
(0.667827 0.152412 9.17145e-21)
(0.816993 0.204673 -1.41022e-19)
(0.943982 0.251791 -1.8945e-20)
(1.04702 0.2902 -2.08994e-20)
(1.12574 0.317708 6.50716e-20)
(1.18132 0.333625 -2.50954e-20)
(1.21603 0.339521 -1.15882e-20)
(0.118138 0.0196659 1.54956e-20)
(0.325941 0.0640665 -3.5413e-20)
(0.515369 0.119506 -6.97934e-20)
(0.685253 0.177083 2.0665e-20)
(0.833237 0.231877 6.63855e-20)
(0.957196 0.279584 1.42114e-20)
(1.056 0.316906 1.13808e-20)
(1.12998 0.342073 -2.51791e-20)
(1.18101 0.354916 -3.18293e-20)
(1.21183 0.357717 7.59869e-20)
(0.123052 0.0252121 3.08433e-20)
(0.337019 0.0784438 1.45091e-19)
(0.529553 0.140433 2.40066e-20)
(0.699934 0.202369 -1.05017e-19)
(0.846223 0.259339 6.03828e-20)
(0.966848 0.307206 -1.00636e-20)
(1.06135 0.343033 -1.16243e-19)
(1.13077 0.365534 9.86939e-21)
(1.17763 0.375106 -2.59275e-20)
(1.20505 0.374734 -5.75547e-20)
(0.127446 0.0310876 -1.19578e-19)
(0.346654 0.0934559 -1.50877e-19)
(0.541497 0.161969 -2.86392e-20)
(0.711723 0.228019 2.57092e-19)
(0.855857 0.286785 -1.34527e-20)
(0.972916 0.334393 1.85435e-19)
(1.06313 0.368344 1.30128e-19)
(1.12823 0.387903 1.08294e-19)
(1.17133 0.394058 2.16888e-20)
(1.19586 0.390488 -6.22843e-20)
(0.131261 0.0372378 1.11388e-19)
(0.354719 0.108956 -1.17389e-19)
(0.551061 0.183899 7.95675e-20)
(0.720507 0.253772 -9.44938e-20)
(0.86208 0.31394 2.27836e-20)
(0.975413 0.36088 -1.32063e-19)
(1.06142 0.392615 7.85825e-21)
(1.12249 0.409004 -1.53769e-20)
(1.1623 0.411647 2.193e-20)
(1.18445 0.404901 1.05522e-19)
(0.134439 0.0436013 6.84729e-21)
(0.361105 0.124785 4.04822e-20)
(0.558133 0.205993 -5.58152e-20)
(0.726207 0.27936 -2.47266e-20)
(0.864872 0.340528 -5.18999e-20)
(0.974387 0.386416 1.15291e-19)
(1.05633 0.415633 -1.53998e-19)
(1.11372 0.428675 -5.07622e-20)
(1.15068 0.427752 2.20556e-20)
(1.17097 0.417895 -3.31957e-20)
(0.136935 0.0501103 1.14462e-20)
(0.365725 0.140771 6.03872e-20)
(0.562629 0.228013 2.36177e-19)
(0.728778 0.304512 -1.94431e-19)
(0.864249 0.366278 -9.78687e-20)
(0.969917 0.410755 -5.4717e-20)
(1.04799 0.4372 1.41095e-19)
(1.10207 0.446772 4.97577e-20)
(1.13667 0.442278 -7.53612e-20)
(1.15555 0.429392 -2.91267e-20)
(0.138708 0.0566919 -4.09945e-20)
(0.36851 0.156735 -9.04373e-20)
(0.564498 0.249714 -1.76133e-19)
(0.728214 0.328954 1.51556e-19)
(0.860263 0.390925 5.19304e-21)
(0.962115 0.433666 -1.20154e-19)
(1.03657 0.457132 4.91191e-20)
(1.08773 0.463161 -2.80734e-21)
(1.12046 0.455166 3.54941e-20)
(1.13835 0.439337 -7.0017e-21)
(0.139727 0.063269 -2.09833e-20)
(0.369417 0.172492 1.47549e-19)
(0.56372 0.27085 1.81899e-19)
(0.724543 0.35242 4.89918e-20)
(0.852999 0.414212 -3.85231e-20)
(0.951118 0.454931 2.26822e-19)
(1.02223 0.475258 -8.34182e-20)
(1.07088 0.477709 3.0346e-20)
(1.10219 0.466329 9.25746e-20)
(1.11963 0.447676 1.42019e-20)
(0.139973 0.0697613 -7.29969e-20)
(0.368425 0.187853 3.33663e-20)
(0.560305 0.291174 -1.45361e-19)
(0.717826 0.374647 -6.79013e-20)
(0.842575 0.435898 4.65751e-20)
(0.93709 0.474347 -6.99791e-21)
(1.00516 0.491425 -1.23138e-19)
(1.05171 0.490316 -5.76192e-20)
(1.08203 0.475653 -5.04922e-20)
(1.09955 0.454368 -3.81936e-21)
(0.139435 0.0760871 -4.34675e-20)
(0.365537 0.202628 -1.46012e-19)
(0.554296 0.310445 1.20063e-19)
(0.708159 0.395385 8.64375e-22)
(0.829141 0.455754 3.07425e-20)
(0.920219 0.49173 -9.56956e-20)
(0.985565 0.5055 1.00415e-19)
(1.0304 0.500893 5.47157e-20)
(1.06015 0.483079 1.16769e-20)
(1.07819 0.459338 2.48137e-20)
(0.138114 0.0821641 5.39618e-20)
(0.36078 0.216632 1.94233e-20)
(0.545768 0.328429 -1.03729e-19)
(0.695671 0.414394 2.21756e-20)
(0.812869 0.473568 -3.31948e-20)
(0.900713 0.506913 -5.38671e-20)
(0.963666 0.517363 -6.90584e-21)
(1.00716 0.509363 -4.42482e-20)
(1.0367 0.488555 4.91898e-21)
(1.05566 0.462523 -4.40812e-20)
(0.136019 0.0879115 -2.6296e-20)
(0.354205 0.229682 1.33437e-19)
(0.534824 0.3449 -8.8639e-20)
(0.680514 0.43145 8.21952e-20)
(0.793962 0.489147 7.78568e-20)
(0.878799 0.519746 3.40095e-22)
(0.939691 0.526913 -3.46559e-20)
(0.982192 0.515662 2.04769e-20)
(1.01185 0.492039 -4.60091e-20)
(1.03207 0.463858 1.78119e-20)
(0.133171 0.0932495 2.57831e-20)
(0.345885 0.241603 -4.62818e-20)
(0.521592 0.359648 6.86902e-20)
(0.662874 0.446347 -3.53622e-20)
(0.772644 0.502315 -4.15728e-20)
(0.854726 0.530101 2.94154e-20)
(0.913887 0.534068 1.0572e-20)
(0.955709 0.519749 2.02065e-21)
(0.985725 0.493503 -2.83181e-21)
(1.00752 0.463275 1.50137e-20)
(0.129598 0.0980982 -3.8791e-21)
(0.335919 0.252233 -1.86986e-20)
(0.506229 0.372476 -2.42735e-20)
(0.642958 0.458897 -1.52726e-20)
(0.749159 0.512917 1.41323e-21)
(0.828752 0.537867 4.33409e-20)
(0.88651 0.538761 -2.622e-20)
(0.927934 0.521596 -7.06491e-20)
(0.958455 0.492935 1.98316e-19)
(0.982069 0.460691 1.00683e-19)
(0.125345 0.102384 3.16785e-21)
(0.324422 0.261414 -9.25129e-22)
(0.488914 0.383208 -1.40675e-20)
(0.620994 0.468934 2.16968e-20)
(0.723765 0.520821 -3.5466e-20)
(0.801152 0.54295 -9.07785e-20)
(0.857835 0.540943 4.36476e-21)
(0.899103 0.521197 -1.48234e-20)
(0.930173 0.490336 -6.10071e-20)
(0.955819 0.455989 -1.97612e-19)
(0.120462 0.106042 -2.60757e-21)
(0.311524 0.269007 -5.14665e-22)
(0.469846 0.391683 2.63385e-20)
(0.597229 0.476312 -1.75598e-20)
(0.696736 0.525912 7.62493e-20)
(0.772209 0.545277 6.8072e-20)
(0.828142 0.540577 1.76449e-19)
(0.869476 0.518563 4.06664e-20)
(0.901073 0.485736 -1.06707e-19)
(0.928859 0.449072 -2.67947e-21)
(0.115007 0.109012 -1.38023e-20)
(0.297376 0.27489 -3.6943e-20)
(0.449241 0.397763 -3.3458e-20)
(0.571921 0.480908 3.42611e-20)
(0.668352 0.528098 3.81499e-20)
(0.742209 0.544787 -6.1721e-21)
(0.797721 0.53764 -2.8208e-19)
(0.839357 0.513715 2.84753e-20)
(0.871537 0.479242 1.12745e-20)
(0.901107 0.440143 6.10974e-20)
(0.109043 0.111239 -7.35218e-21)
(0.282142 0.278956 4.13732e-20)
(0.42733 0.401335 -1.22525e-19)
(0.545341 0.482626 3.92401e-20)
(0.638898 0.52731 -5.13848e-21)
(0.711434 0.541437 -2.05007e-19)
(0.766848 0.532101 2.07278e-19)
(0.809111 0.506638 -1.87732e-19)
(0.84231 0.471018 2.13751e-19)
(0.872153 0.428777 -1.18508e-19)
(0.102642 0.112678 9.55287e-20)
(0.265999 0.281118 1.01442e-19)
(0.404359 0.402307 1.86436e-19)
(0.517768 0.481394 1.12402e-19)
(0.608661 0.523503 2.22181e-20)
(0.680154 0.535203 2.71073e-21)
(0.735775 0.523935 -1.26834e-19)
(0.779089 0.497201 2.94156e-20)
(0.814047 0.461023 -2.13597e-19)
(0.845639 0.418644 2.84312e-19)
(0.0958822 0.113289 -5.56496e-20)
(0.249133 0.281307 -7.9652e-20)
(0.380577 0.400614 -2.65947e-19)
(0.489487 0.477168 -1.20359e-19)
(0.577926 0.516658 -9.09537e-21)
(0.648629 0.52609 3.89655e-19)
(0.704708 0.513165 3.22918e-19)
(0.749318 0.485453 2.32642e-19)
(0.7861 0.448989 5.03941e-19)
(0.819184 0.40717 2.69576e-19)
(0.0888452 0.113046 -2.58419e-20)
(0.231739 0.279474 2.07293e-19)
(0.356246 0.396215 6.9181e-20)
(0.460784 0.469927 -5.3417e-20)
(0.54698 0.50678 6.49996e-20)
(0.617123 0.514126 -5.52821e-19)
(0.673868 0.499842 -3.05335e-19)
(0.719945 0.471493 -1.6301e-19)
(0.758607 0.435072 -3.05573e-19)
(0.793268 0.394166 -1.0276e-19)
(0.0816163 0.111927 -3.17902e-20)
(0.214015 0.275593 -3.62994e-19)
(0.331627 0.389098 2.82765e-20)
(0.43195 0.459681 1.42791e-19)
(0.516109 0.493901 -5.32782e-20)
(0.585901 0.499359 8.2925e-20)
(0.643489 0.484022 2.68951e-19)
(0.691169 0.45539 -1.19794e-19)
(0.73179 0.41937 -3.75909e-19)
(0.768173 0.379645 -1.64569e-20)
(0.0742835 0.109925 7.86693e-20)
(0.196163 0.269658 1.13271e-19)
(0.306986 0.379273 1.53295e-19)
(0.403272 0.446462 -8.00001e-20)
(0.485597 0.478071 -3.15934e-19)
(0.555224 0.48185 -3.5469e-19)
(0.613801 0.46577 -1.36582e-19)
(0.663188 0.437201 4.3014e-19)
(0.705826 0.401917 3.67708e-19)
(0.744031 0.363615 4.22328e-19)
(0.0669355 0.10704 -2.57406e-19)
(0.178387 0.261682 3.28046e-19)
(0.282585 0.366775 -2.25091e-19)
(0.375035 0.430328 -1.99841e-19)
(0.455721 0.459363 4.55358e-19)
(0.525345 0.461678 4.20668e-19)
(0.585026 0.445162 5.24976e-19)
(0.636191 0.416986 -1.91444e-19)
(0.680875 0.38275 -2.0415e-19)
(0.720957 0.346089 -6.11356e-19)
(0.0596612 0.10328 1.88114e-19)
(0.160888 0.2517 -7.7695e-20)
(0.258682 0.351666 2.69451e-19)
(0.347513 0.411358 -2.41101e-19)
(0.426749 0.43787 -3.42245e-20)
(0.496507 0.43894 -7.18902e-19)
(0.557378 0.422285 -3.42242e-19)
(0.610355 0.39482 1.96771e-19)
(0.657086 0.361918 8.00874e-20)
(0.699065 0.3271 -7.6774e-21)
(0.0525484 0.0986653 9.22024e-20)
(0.143861 0.239769 -2.50088e-19)
(0.235529 0.334029 -3.30425e-19)
(0.320975 0.389659 2.37721e-20)
(0.398937 0.413705 3.35909e-19)
(0.468944 0.413747 -2.43573e-20)
(0.531056 0.397241 -1.23943e-19)
(0.585849 0.370786 -2.26079e-19)
(0.634597 0.339488 -4.44404e-19)
(0.678456 0.306698 1.27318e-20)
(0.0456827 0.0932247 3.50304e-20)
(0.127499 0.225961 -3.29008e-20)
(0.213366 0.313973 5.34071e-19)
(0.295676 0.365357 2.13934e-19)
(0.372529 0.387002 -7.48109e-20)
(0.442873 0.386226 5.21632e-19)
(0.506248 0.370144 -2.77638e-19)
(0.56283 0.344982 3.55311e-19)
(0.613534 0.315535 1.47222e-19)
(0.659227 0.284949 -2.50328e-19)
(0.0391464 0.0869955 1.10279e-19)
(0.111983 0.210371 1.69033e-19)
(0.192424 0.291626 -6.06266e-19)
(0.271856 0.338599 -9.18799e-20)
(0.347756 0.357912 -4.18985e-19)
(0.418499 0.356522 5.66974e-20)
(0.483131 0.341124 7.60636e-20)
(0.541443 0.317517 1.20342e-19)
(0.594015 0.290151 4.50643e-19)
(0.641465 0.261931 9.78821e-20)
(0.033018 0.0800236 -1.49584e-19)
(0.0974863 0.193108 2.15781e-19)
(0.172918 0.267138 1.57039e-20)
(0.249741 0.309553 5.85208e-20)
(0.324829 0.326604 4.14096e-19)
(0.396012 0.324793 7.3266e-21)
(0.461864 0.310322 1.13271e-19)
(0.521819 0.288513 -5.85792e-20)
(0.576147 0.263437 -2.82958e-19)
(0.625251 0.237736 -8.65843e-20)
(0.0273704 0.0723633 2.94071e-19)
(0.0841678 0.174301 -2.37631e-19)
(0.155048 0.240677 3.02432e-19)
(0.229539 0.278406 -1.84345e-20)
(0.303945 0.293264 -8.8836e-21)
(0.375584 0.291211 -4.09706e-19)
(0.442594 0.27789 8.20742e-20)
(0.50408 0.258101 2.55142e-20)
(0.560028 0.235507 -1.09828e-19)
(0.610658 0.212465 5.00089e-19)
(0.0222713 0.0640761 -3.22942e-19)
(0.072175 0.15409 1.8426e-19)
(0.138996 0.212432 -1.87942e-19)
(0.211437 0.245362 -1.13141e-19)
(0.285279 0.258093 -3.556e-20)
(0.357371 0.255963 9.44257e-20)
(0.425454 0.243992 1.40028e-19)
(0.488335 0.226424 1.49328e-19)
(0.545746 0.206482 -2.68013e-19)
(0.597755 0.186228 -1.88876e-19)
(0.0177813 0.0552302 8.59297e-20)
(0.0616394 0.132634 -4.51487e-20)
(0.124924 0.182603 -2.89267e-20)
(0.195604 0.210639 3.55871e-19)
(0.268989 0.221304 -6.82793e-20)
(0.34151 0.219244 -7.78765e-20)
(0.410558 0.208803 1.54881e-19)
(0.47468 0.19363 -7.85433e-20)
(0.533381 0.176493 6.11428e-20)
(0.586604 0.159142 1.26418e-19)
(0.0139539 0.0459001 7.59766e-20)
(0.0526767 0.1101 -2.62525e-20)
(0.112976 0.151409 6.04659e-20)
(0.182186 0.174471 -1.955e-19)
(0.25521 0.183124 4.59724e-20)
(0.328121 0.181262 3.1422e-19)
(0.398009 0.172504 -1.99016e-19)
(0.463197 0.159879 -3.45992e-19)
(0.523002 0.145675 -1.10488e-19)
(0.577262 0.131332 4.3794e-21)
(0.0108348 0.0361656 2.4187e-20)
(0.045385 0.0866681 -7.86126e-20)
(0.103271 0.119078 1.62525e-19)
(0.171305 0.1371 -6.09541e-20)
(0.244057 0.143789 1.04116e-19)
(0.317303 0.142231 -2.59953e-19)
(0.387889 0.135283 1.37334e-19)
(0.453958 0.125331 1.22897e-19)
(0.51467 0.114171 1.97751e-19)
(0.56978 0.102924 -1.81107e-19)
(0.00846106 0.0261109 -8.50201e-20)
(0.039844 0.0625261 4.30005e-20)
(0.0959065 0.0858507 -7.33096e-20)
(0.163061 0.0987829 -1.02256e-19)
(0.235621 0.103545 -2.29913e-19)
(0.309136 0.102373 1.73867e-19)
(0.380266 0.0973365 -4.53048e-20)
(0.447017 0.090155 1.44711e-19)
(0.508433 0.0821252 -1.34427e-19)
(0.564207 0.0740517 1.19075e-19)
(0.00686115 0.0158238 2.83364e-20)
(0.0361144 0.0378697 -9.72624e-21)
(0.0909571 0.0519736 -1.14733e-20)
(0.15753 0.05978 8.60821e-20)
(0.229971 0.0626414 4.6759e-20)
(0.303678 0.0619171 -4.92125e-20)
(0.375187 0.058862 -7.55577e-21)
(0.442414 0.0545197 -1.51935e-19)
(0.504328 0.0496812 1.15864e-19)
(0.560584 0.0448394 3.67884e-20)
(0.00605423 0.00539488 -6.67326e-21)
(0.0342371 0.0128997 -1.56369e-20)
(0.0884719 0.0177011 -9.03083e-21)
(0.15476 0.0203598 6.18734e-21)
(0.227152 0.0213371 3.63202e-20)
(0.300968 0.0210954 6.90208e-21)
(0.372683 0.0200624 2.53784e-20)
(0.440171 0.0185963 4.83154e-20)
(0.502371 0.0169757 -4.52415e-21)
(0.558935 0.0153908 -5.24025e-20)
(0.00605013 -0.00508375 -1.22758e-20)
(0.0342328 -0.0121798 -1.85747e-20)
(0.088476 -0.0167094 3.25438e-21)
(0.154777 -0.0192061 -4.43742e-21)
(0.227185 -0.0201081 4.26753e-20)
(0.301022 -0.0198563 -1.59635e-21)
(0.372764 -0.0188559 2.66188e-20)
(0.440289 -0.0174396 4.53514e-20)
(0.502545 -0.0158527 7.38813e-21)
(0.559203 -0.0142424 -6.07047e-20)
(0.00684913 -0.0155193 4.86684e-20)
(0.0361019 -0.0371633 1.02415e-20)
(0.0909693 -0.0509987 -3.06937e-20)
(0.15758 -0.0586446 1.14942e-19)
(0.230071 -0.0614322 1.38505e-20)
(0.303839 -0.0607002 -2.15592e-20)
(0.375425 -0.0576832 -8.13777e-21)
(0.442755 -0.0534034 -1.38744e-19)
(0.504816 -0.0486299 9.77489e-20)
(0.5613 -0.0438417 -1.52288e-20)
(0.00844197 -0.0258192 -9.29632e-20)
(0.0398244 -0.0618461 1.22535e-20)
(0.0959271 -0.0849086 -5.11933e-20)
(0.163144 -0.0976833 -1.17839e-19)
(0.235783 -0.102373 -2.40422e-19)
(0.309395 -0.101198 1.75241e-19)
(0.380645 -0.0962089 -6.88867e-22)
(0.447549 -0.0891079 1.33117e-19)
(0.50917 -0.0811804 -1.67795e-19)
(0.565228 -0.0732288 1.54652e-19)
(0.0108099 -0.0358924 -9.85297e-21)
(0.04536 -0.0860264 5.83287e-21)
(0.1033 -0.118184 -5.6404e-20)
(0.171417 -0.136053 8.37831e-20)
(0.244276 -0.142673 6.49368e-20)
(0.317649 -0.141115 -3.03045e-19)
(0.388388 -0.134224 9.38682e-20)
(0.454644 -0.12437 2.63716e-19)
(0.515589 -0.113341 8.57059e-20)
(0.570991 -0.102258 -1.13939e-19)
(0.0139251 -0.0456503 -1.67254e-20)
(0.0526489 -0.109507 -7.09677e-20)
(0.113015 -0.150575 1.53072e-19)
(0.182325 -0.173489 -1.81892e-19)
(0.255478 -0.182076 -1.19924e-19)
(0.32854 -0.180219 4.58685e-19)
(0.398605 -0.171524 -3.87515e-19)
(0.464 -0.15901 -2.33054e-19)
(0.524047 -0.144957 -7.97729e-20)
(0.578582 -0.130796 2.43662e-20)
(0.0177506 -0.0550077 1.19113e-19)
(0.0616117 -0.132098 5.7963e-20)
(0.124973 -0.18184 -4.98128e-20)
(0.195768 -0.209735 3.93739e-19)
(0.269298 -0.220336 -1.89919e-19)
(0.341988 -0.218283 4.45361e-20)
(0.411228 -0.207911 2.13486e-21)
(0.475566 -0.192857 -3.96675e-20)
(0.534504 -0.175878 9.6191e-20)
(0.587978 -0.158716 5.35201e-20)
(0.0222409 -0.0638837 -2.50119e-19)
(0.0721507 -0.153618 2.98617e-20)
(0.139056 -0.211749 -1.74312e-19)
(0.211624 -0.244544 -6.60105e-20)
(0.285622 -0.257213 6.03602e-20)
(0.357894 -0.255091 3.52014e-20)
(0.426177 -0.24319 3.36903e-20)
(0.489276 -0.225744 8.74453e-20)
(0.546912 -0.205963 -4.31514e-20)
(0.599144 -0.185892 -3.37342e-19)
(0.0273426 -0.0722028 2.59102e-19)
(0.0841504 -0.173896 -1.65062e-19)
(0.155122 -0.24008 3.10293e-19)
(0.229746 -0.277681 -4.14826e-20)
(0.304316 -0.292478 -8.25107e-20)
(0.376141 -0.290432 -3.40793e-19)
(0.443354 -0.27718 1.56367e-19)
(0.505053 -0.257511 -2.61083e-19)
(0.561211 -0.235074 1.80412e-19)
(0.612037 -0.212204 2.31105e-19)
(0.032995 -0.0798957 -1.99663e-19)
(0.0974793 -0.192773 1.04068e-19)
(0.173007 -0.26663 2.30839e-19)
(0.249968 -0.308925 -2.73617e-20)
(0.325222 -0.325916 4.33061e-19)
(0.396592 -0.324109 3.19525e-20)
(0.462645 -0.309703 -2.67391e-20)
(0.522805 -0.288009 1.3473e-19)
(0.577327 -0.263082 -2.93106e-19)
(0.626604 -0.237538 -1.21217e-19)
(0.0391305 -0.0868998 1.50786e-19)
(0.11199 -0.210106 2.25955e-19)
(0.19253 -0.291208 -5.89642e-19)
(0.272101 -0.338069 -2.20371e-19)
(0.348167 -0.357323 -7.78682e-20)
(0.419095 -0.355934 -1.55499e-19)
(0.483922 -0.340595 1.71254e-19)
(0.542428 -0.317095 -2.44321e-20)
(0.595179 -0.289866 4.68953e-19)
(0.642784 -0.261788 -4.24098e-20)
(0.0456755 -0.0931602 -3.895e-20)
(0.127523 -0.225766 -1.15394e-19)
(0.213492 -0.313646 7.21704e-19)
(0.295939 -0.364926 1.0227e-19)
(0.372955 -0.386513 -9.82268e-20)
(0.443478 -0.385733 4.93156e-19)
(0.50704 -0.369703 1.7177e-21)
(0.563805 -0.344638 1.13029e-20)
(0.614672 -0.315316 1.5403e-19)
(0.660506 -0.284857 -2.4314e-20)
(0.0525515 -0.0986301 2.9831e-20)
(0.143905 -0.23964 -1.75062e-19)
(0.235676 -0.333789 -4.53259e-19)
(0.321257 -0.389325 2.08286e-19)
(0.399375 -0.413314 -1.37352e-20)
(0.469553 -0.413347 1.52736e-19)
(0.531841 -0.396884 3.5978e-20)
(0.586805 -0.370516 -4.3602e-19)
(0.635702 -0.339332 -3.65219e-19)
(0.679693 -0.306654 4.53667e-20)
(0.0596758 -0.103272 -4.46938e-20)
(0.160953 -0.251633 -5.25703e-20)
(0.258852 -0.351509 3.53958e-19)
(0.347813 -0.411118 -1.55315e-19)
(0.427198 -0.437573 -1.59424e-19)
(0.497118 -0.438631 -5.81453e-19)
(0.558152 -0.42201 -3.17309e-19)
(0.611287 -0.394622 1.71979e-19)
(0.658155 -0.361823 4.54968e-20)
(0.700258 -0.327104 2.12436e-19)
(0.0669624 -0.107055 -2.16108e-19)
(0.178477 -0.261671 3.11068e-19)
(0.28278 -0.366696 -4.92617e-19)
(0.375354 -0.430175 1.7682e-19)
(0.456181 -0.459157 1.72091e-19)
(0.525954 -0.461455 5.90668e-19)
(0.585787 -0.444966 3.98659e-19)
(0.637095 -0.416857 -2.17242e-19)
(0.681905 -0.382713 -3.3682e-19)
(0.722106 -0.346142 -3.63958e-19)
(0.0743231 -0.109962 1.60277e-19)
(0.196278 -0.269698 4.09945e-20)
(0.307206 -0.379265 -6.1127e-22)
(0.403612 -0.446392 -1.45407e-20)
(0.486067 -0.47795 -4.33122e-19)
(0.555831 -0.481708 -3.39101e-20)
(0.614545 -0.465649 -3.71606e-19)
(0.664063 -0.437137 3.3914e-19)
(0.706814 -0.401939 6.67202e-19)
(0.745133 -0.36372 3.45474e-19)
(0.0816687 -0.111982 -2.06248e-19)
(0.214155 -0.275678 -3.2725e-19)
(0.331874 -0.389155 -1.2571e-21)
(0.432311 -0.459687 2.10288e-19)
(0.516589 -0.493859 -1.1886e-19)
(0.586505 -0.499294 2.3423e-19)
(0.644216 -0.48397 4.52466e-20)
(0.692013 -0.455388 -1.4972e-19)
(0.732734 -0.419448 -1.95087e-19)
(0.769225 -0.379807 -1.5158e-19)
(0.0889099 -0.113115 -8.85588e-20)
(0.231904 -0.279597 1.82829e-19)
(0.356519 -0.396328 1.43525e-19)
(0.461166 -0.47 5.62605e-21)
(0.54747 -0.50681 -8.38193e-20)
(0.617724 -0.514132 -4.16092e-19)
(0.674577 -0.499854 -3.66311e-19)
(0.720756 -0.471548 -5.01021e-20)
(0.759505 -0.435203 -4.72932e-19)
(0.794262 -0.394387 -2.24291e-19)
(0.0959588 -0.11337 -1.38914e-20)
(0.249323 -0.281461 -2.4334e-19)
(0.380877 -0.400775 -5.86629e-20)
(0.489889 -0.4773 -2.60558e-19)
(0.578428 -0.516752 1.37563e-19)
(0.649228 -0.526159 3.67681e-19)
(0.7054 -0.513236 2.00443e-19)
(0.750097 -0.485559 2.37656e-19)
(0.786951 -0.449167 5.62348e-19)
(0.820112 -0.407451 8.31979e-20)
(0.10273 -0.112766 1.58112e-19)
(0.266212 -0.281297 4.34697e-20)
(0.404684 -0.402509 1.35057e-19)
(0.518192 -0.481579 1.0119e-19)
(0.609175 -0.523655 6.75866e-20)
(0.680752 -0.535329 -1.13927e-20)
(0.736452 -0.524057 -5.94225e-20)
(0.779838 -0.497351 -1.07286e-19)
(0.814851 -0.461239 -1.71077e-19)
(0.846488 -0.418995 2.92044e-19)
(0.10914 -0.111334 -1.07537e-21)
(0.282377 -0.279155 5.6563e-20)
(0.42768 -0.401569 -4.59607e-20)
(0.545786 -0.482854 -9.12882e-20)
(0.639425 -0.527512 9.20143e-20)
(0.712033 -0.541612 -1.96045e-19)
(0.767511 -0.532268 6.08287e-20)
(0.809832 -0.506822 3.56391e-20)
(0.843068 -0.471261 -6.11876e-22)
(0.872874 -0.429205 -1.15947e-19)
(0.115113 -0.10911 6.87556e-21)
(0.29763 -0.275101 -6.21584e-20)
(0.449613 -0.398023 1.89045e-20)
(0.572386 -0.481172 9.82259e-21)
(0.668891 -0.528341 -2.51929e-20)
(0.742811 -0.545005 6.87107e-20)
(0.798375 -0.537845 -2.47794e-19)
(0.840055 -0.513927 7.44573e-20)
(0.872263 -0.479487 -1.74257e-19)
(0.901764 -0.440475 7.169e-20)
(0.120576 -0.10614 1.31785e-20)
(0.311796 -0.269226 -1.52845e-20)
(0.470239 -0.39196 1.15416e-20)
(0.597713 -0.476603 -2.50951e-20)
(0.697289 -0.526189 9.12641e-20)
(0.772815 -0.545531 1.16626e-19)
(0.82879 -0.540816 1.6111e-19)
(0.870154 -0.5188 -4.00595e-20)
(0.901765 -0.485992 -8.35643e-20)
(0.929483 -0.449385 4.08639e-21)
(0.125465 -0.102481 2.20438e-21)
(0.324709 -0.261636 -6.51057e-22)
(0.489326 -0.383497 -1.16274e-20)
(0.621497 -0.469247 1.85461e-20)
(0.724331 -0.521126 -4.84811e-20)
(0.801764 -0.543236 -6.76904e-20)
(0.858477 -0.54121 -3.58864e-20)
(0.899763 -0.521459 -1.82344e-20)
(0.930829 -0.490607 6.61093e-20)
(0.956399 -0.456293 -3.76811e-19)
(0.129723 -0.0981926 5.52686e-21)
(0.336219 -0.252454 -1.47928e-20)
(0.506658 -0.372772 -3.47466e-20)
(0.643476 -0.459224 -1.68239e-20)
(0.749737 -0.513244 4.18004e-21)
(0.829369 -0.538178 3.65842e-20)
(0.887149 -0.539054 -3.07194e-20)
(0.928577 -0.521879 -2.70693e-20)
(0.959076 -0.493219 2.30377e-19)
(0.982602 -0.460987 6.21332e-20)
(0.133299 -0.0933399 7.10601e-20)
(0.346194 -0.241819 -5.59357e-20)
(0.522033 -0.359944 2.53707e-20)
(0.663406 -0.446682 -3.77796e-21)
(0.773233 -0.502657 -3.39193e-20)
(0.855348 -0.530432 2.4086e-20)
(0.914522 -0.534382 1.39702e-20)
(0.956337 -0.520049 -2.20322e-20)
(0.986315 -0.493797 -2.97477e-20)
(1.00801 -0.463565 3.51567e-20)
(0.136149 -0.0879968 -3.12922e-20)
(0.354521 -0.22989 1.10286e-19)
(0.535275 -0.345192 -3.82904e-20)
(0.681057 -0.431788 1.65714e-21)
(0.794561 -0.489499 1.1208e-19)
(0.879427 -0.520092 -9.14765e-21)
(0.940324 -0.527243 -1.94036e-20)
(0.982807 -0.515976 1.48045e-20)
(1.01242 -0.49234 -1.84282e-20)
(1.03253 -0.464145 9.98849e-21)
(0.138244 -0.0822434 3.64565e-20)
(0.3611 -0.21683 2.66064e-20)
(0.546226 -0.328713 3.36871e-22)
(0.696222 -0.414729 -2.95098e-20)
(0.813476 -0.473924 -2.02228e-20)
(0.901344 -0.507268 -9.05675e-20)
(0.964296 -0.517704 -6.70259e-21)
(1.00776 -0.509687 -2.81538e-20)
(1.03725 -0.488862 -5.27231e-21)
(1.05609 -0.462807 -3.09578e-20)
(0.139565 -0.0761599 -1.6675e-20)
(0.365858 -0.202814 -2.30359e-19)
(0.554758 -0.310718 1.50304e-19)
(0.708716 -0.395714 7.02789e-20)
(0.829753 -0.45611 -9.71187e-20)
(0.920854 -0.49209 -3.32268e-20)
(0.986194 -0.505849 7.73354e-20)
(1.03099 -0.501226 8.2508e-20)
(1.06067 -0.48339 1.62159e-21)
(1.0786 -0.459621 2.55921e-20)
(0.140101 -0.0698273 -4.25188e-20)
(0.368744 -0.188025 8.19658e-20)
(0.560766 -0.291433 -2.41393e-19)
(0.718385 -0.374966 -7.9707e-20)
(0.843191 -0.436249 8.49843e-20)
(0.937727 -0.474707 1.43823e-20)
(1.00579 -0.491778 -1.13296e-19)
(1.05229 -0.490653 -6.0947e-20)
(1.08254 -0.475967 -6.37452e-20)
(1.09995 -0.454649 -5.60506e-21)
(0.139852 -0.0633279 1.73191e-20)
(0.369732 -0.17265 1.90315e-19)
(0.564179 -0.271093 8.65964e-20)
(0.725101 -0.352725 1.03347e-19)
(0.853616 -0.414555 -3.09168e-20)
(0.951756 -0.455288 1.46195e-19)
(1.02285 -0.475611 -2.34321e-20)
(1.07147 -0.478047 5.82564e-20)
(1.1027 -0.466643 8.16213e-20)
(1.12002 -0.447955 -2.92572e-20)
(0.138829 -0.0567438 -6.25293e-20)
(0.368819 -0.156878 -1.21198e-19)
(0.564951 -0.24994 -9.07072e-20)
(0.728769 -0.329243 8.56373e-20)
(0.860878 -0.391255 1.70189e-20)
(0.962752 -0.434016 -1.47631e-19)
(1.03719 -0.457483 1.82269e-20)
(1.08831 -0.463499 3.97524e-20)
(1.12096 -0.45548 2.82893e-20)
(1.13873 -0.439615 1.20795e-20)
(0.137051 -0.0501553 3.93781e-20)
(0.366025 -0.140898 1.23256e-19)
(0.563074 -0.22822 1.17058e-19)
(0.729326 -0.304783 -1.47593e-19)
(0.86486 -0.366594 -1.06455e-19)