# Probe 0 (7 0.5 0.005)
# Probe 1 (7 -0.5 0.005)
# Probe 2 (8.5 0.5 0.005)
# Probe 3 (8.5 -0.5 0.005)
# Probe 4 (9.5 0.5 0.005)
# Probe 5 (9.5 -0.5 0.005)
#       Probe             0             1             2             3             4             5
#        Time
        0.005             (-1.79769e+307 -1.79769e+307 -1.79769e+307)             (-1.79769e+307 -1.79769e+307 -1.79769e+307)             (-1.79769e+307 -1.79769e+307 -1.79769e+307)             (-1.79769e+307 -1.79769e+307 -1.79769e+307)             (-1.79769e+307 -1.79769e+307 -1.79769e+307)             (-1.79769e+307 -1.79769e+307 -1.79769e+307)
         0.01             (-1.79769e+307 -1.79769e+307 -1.79769e+307)             (-1.79769e+307 -1.79769e+307 -1.79769e+307)             (-1.79769e+307 -1.79769e+307 -1.79769e+307)             (-1.79769e+307 -1.79769e+307 -1.79769e+307)             (-1.79769e+307 -1.79769e+307 -1.79769e+307)             (-1.79769e+307 -1.79769e+307 -1.79769e+307)
        0.015             (-1.79769e+307 -1.79769e+307 -1.79769e+307)             (-1.79769e+307 -1.79769e+307 -1.79769e+307)             (-1.79769e+307 -1.79769e+307 -1.79769e+307)             (-1.79769e+307 -1.79769e+307 -1.79769e+307)             (-1.79769e+307 -1.79769e+307 -1.79769e+307)             (-1.79769e+307 -1.79769e+307 -1.79769e+307)
         0.02             (-1.79769e+307 -1.79769e+307 -1.79769e+307)             (-1.79769e+307 -1.79769e+307 -1.79769e+307)             (-1.79769e+307 -1.79769e+307 -1.79769e+307)             (-1.79769e+307 -1.79769e+307 -1.79769e+307)             (-1.79769e+307 -1.79769e+307 -1.79769e+307)             (-1.79769e+307 -1.79769e+307 -1.79769e+307)
        0.025             (-1.79769e+307 -1.79769e+307 -1.79769e+307)             (-1.79769e+307 -1.79769e+307 -1.79769e+307)             (-1.79769e+307 -1.79769e+307 -1.79769e+307)             (-1.79769e+307 -1.79769e+307 -1.79769e+307)             (-1.79769e+307 -1.79769e+307 -1.79769e+307)             (-1.79769e+307 -1.79769e+307 -1.79769e+307)
         0.03             (-1.79769e+307 -1.79769e+307 -1.79769e+307)             (-1.79769e+307 -1.79769e+307 -1.79769e+307)             (-1.79769e+307 -1.79769e+307 -1.79769e+307)             (-1.79769e+307 -1.79769e+307 -1.79769e+307)             (-1.79769e+307 -1.79769e+307 -1.79769e+307)             (-1.79769e+307 -1.79769e+307 -1.79769e+307)
        0.035             (-1.79769e+307 -1.79769e+307 -1.79769e+307)             (-1.79769e+307 -1.79769e+307 -1.79769e+307)             (-1.79769e+307 -1.79769e+307 -1.79769e+307)             (-1.79769e+307 -1.79769e+307 -1.79769e+307)             (-1.79769e+307 -1.79769e+307 -1.79769e+307)             (-1.79769e+307 -1.79769e+307 -1.79769e+307)
         0.04             (-1.79769e+307 -1.79769e+307 -1.79769e+307)             (-1.79769e+307 -1.79769e+307 -1.79769e+307)             (-1.79769e+307 -1.79769e+307 -1.79769e+307)             (-1.79769e+307 -1.79769e+307 -1.79769e+307)             (-1.79769e+307 -1.79769e+307 -1.79769e+307)             (-1.79769e+307 -1.79769e+307 -1.79769e+307)
        0.045             (-1.79769e+307 -1.79769e+307 -1.79769e+307)             (-1.79769e+307 -1.79769e+307 -1.79769e+307)             (-1.79769e+307 -1.79769e+307 -1.79769e+307)             (-1.79769e+307 -1.79769e+307 -1.79769e+307)             (-1.79769e+307 -1.79769e+307 -1.79769e+307)             (-1.79769e+307 -1.79769e+307 -1.79769e+307)
         0.05             (-1.79769e+307 -1.79769e+307 -1.79769e+307)             (-1.79769e+307 -1.79769e+307 -1.79769e+307)             (-1.79769e+307 -1.79769e+307 -1.79769e+307)             (-1.79769e+307 -1.79769e+307 -1.79769e+307)             (-1.79769e+307 -1.79769e+307 -1.79769e+307)             (-1.79769e+307 -1.79769e+307 -1.79769e+307)
        0.055             (-1.79769e+307 -1.79769e+307 -1.79769e+307)             (-1.79769e+307 -1.79769e+307 -1.79769e+307)             (-1.79769e+307 -1.79769e+307 -1.79769e+307)             (-1.79769e+307 -1.79769e+307 -1.79769e+307)             (-1.79769e+307 -1.79769e+307 -1.79769e+307)             (-1.79769e+307 -1.79769e+307 -1.79769e+307)
         0.06             (-1.79769e+307 -1.79769e+307 -1.79769e+307)             (-1.79769e+307 -1.79769e+307 -1.79769e+307)             (-1.79769e+307 -1.79769e+307 -1.79769e+307)             (-1.79769e+307 -1.79769e+307 -1.79769e+307)             (-1.79769e+307 -1.79769e+307 -1.79769e+307)             (-1.79769e+307 -1.79769e+307 -1.79769e+307)
        0.065             (-1.79769e+307 -1.79769e+307 -1.79769e+307)             (-1.79769e+307 -1.79769e+307 -1.79769e+307)             (-1.79769e+307 -1.79769e+307 -1.79769e+307)             (-1.79769e+307 -1.79769e+307 -1.79769e+307)             (-1.79769e+307 -1.79769e+307 -1.79769e+307)             (-1.79769e+307 -1.79769e+307 -1.79769e+307)
         0.07             (-1.79769e+307 -1.79769e+307 -1.79769e+307)             (-1.79769e+307 -1.79769e+307 -1.79769e+307)             (-1.79769e+307 -1.79769e+307 -1.79769e+307)             (-1.79769e+307 -1.79769e+307 -1.79769e+307)             (-1.79769e+307 -1.79769e+307 -1.79769e+307)             (-1.79769e+307 -1.79769e+307 -1.79769e+307)
        0.075             (-1.79769e+307 -1.79769e+307 -1.79769e+307)             (-1.79769e+307 -1.79769e+307 -1.79769e+307)             (-1.79769e+307 -1.79769e+307 -1.79769e+307)             (-1.79769e+307 -1.79769e+307 -1.79769e+307)             (-1.79769e+307 -1.79769e+307 -1.79769e+307)             (-1.79769e+307 -1.79769e+307 -1.79769e+307)
         0.08             (-1.79769e+307 -1.79769e+307 -1.79769e+307)             (-1.79769e+307 -1.79769e+307 -1.79769e+307)             (-1.79769e+307 -1.79769e+307 -1.79769e+307)             (-1.79769e+307 -1.79769e+307 -1.79769e+307)             (-1.79769e+307 -1.79769e+307 -1.79769e+307)             (-1.79769e+307 -1.79769e+307 -1.79769e+307)
        0.085             (-1.79769e+307 -1.79769e+307 -1.79769e+307)             (-1.79769e+307 -1.79769e+307 -1.79769e+307)             (-1.79769e+307 -1.79769e+307 -1.79769e+307)             (-1.79769e+307 -1.79769e+307 -1.79769e+307)             (-1.79769e+307 -1.79769e+307 -1.79769e+307)             (-1.79769e+307 -1.79769e+307 -1.79769e+307)
         0.09             (-1.79769e+307 -1.79769e+307 -1.79769e+307)             (-1.79769e+307 -1.79769e+307 -1.79769e+307)             (-1.79769e+307 -1.79769e+307 -1.79769e+307)             (-1.79769e+307 -1.79769e+307 -1.79769e+307)             (-1.79769e+307 -1.79769e+307 -1.79769e+307)             (-1.79769e+307 -1.79769e+307 -1.79769e+307)
        0.095             (-1.79769e+307 -1.79769e+307 -1.79769e+307)             (-1.79769e+307 -1.79769e+307 -1.79769e+307)             (-1.79769e+307 -1.79769e+307 -1.79769e+307)             (-1.79769e+307 -1.79769e+307 -1.79769e+307)             (-1.79769e+307 -1.79769e+307 -1.79769e+307)             (-1.79769e+307 -1.79769e+307 -1.79769e+307)
          0.1             (-1.79769e+307 -1.79769e+307 -1.79769e+307)             (-1.79769e+307 -1.79769e+307 -1.79769e+307)             (-1.79769e+307 -1.79769e+307 -1.79769e+307)             (-1.79769e+307 -1.79769e+307 -1.79769e+307)             (-1.79769e+307 -1.79769e+307 -1.79769e+307)             (-1.79769e+307 -1.79769e+307 -1.79769e+307)
        0.105             (-1.79769e+307 -1.79769e+307 -1.79769e+307)             (-1.79769e+307 -1.79769e+307 -1.79769e+307)             (-1.79769e+307 -1.79769e+307 -1.79769e+307)             (-1.79769e+307 -1.79769e+307 -1.79769e+307)             (-1.79769e+307 -1.79769e+307 -1.79769e+307)             (-1.79769e+307 -1.79769e+307 -1.79769e+307)
         0.11             (-1.79769e+307 -1.79769e+307 -1.79769e+307)             (-1.79769e+307 -1.79769e+307 -1.79769e+307)             (-1.79769e+307 -1.79769e+307 -1.79769e+307)             (-1.79769e+307 -1.79769e+307 -1.79769e+307)             (-1.79769e+307 -1.79769e+307 -1.79769e+307)             (-1.79769e+307 -1.79769e+307 -1.79769e+307)
        0.115             (-1.79769e+307 -1.79769e+307 -1.79769e+307)             (-1.79769e+307 -1.79769e+307 -1.79769e+307)             (-1.79769e+307 -1.79769e+307 -1.79769e+307)             (-1.79769e+307 -1.79769e+307 -1.79769e+307)             (-1.79769e+307 -1.79769e+307 -1.79769e+307)             (-1.79769e+307 -1.79769e+307 -1.79769e+307)
         0.12             (-1.79769e+307 -1.79769e+307 -1.79769e+307)             (-1.79769e+307 -1.79769e+307 -1.79769e+307)             (-1.79769e+307 -1.79769e+307 -1.79769e+307)             (-1.79769e+307 -1.79769e+307 -1.79769e+307)             (-1.79769e+307 -1.79769e+307 -1.79769e+307)             (-1.79769e+307 -1.79769e+307 -1.79769e+307)
        0.125             (-1.79769e+307 -1.79769e+307 -1.79769e+307)             (-1.79769e+307 -1.79769e+307 -1.79769e+307)             (-1.79769e+307 -1.79769e+307 -1.79769e+307)             (-1.79769e+307 -1.79769e+307 -1.79769e+307)             (-1.79769e+307 -1.79769e+307 -1.79769e+307)             (-1.79769e+307 -1.79769e+307 -1.79769e+307)
         0.13             (-1.79769e+307 -1.79769e+307 -1.79769e+307)             (-1.79769e+307 -1.79769e+307 -1.79769e+307)             (-1.79769e+307 -1.79769e+307 -1.79769e+307)             (-1.79769e+307 -1.79769e+307 -1.79769e+307)             (-1.79769e+307 -1.79769e+307 -1.79769e+307)             (-1.79769e+307 -1.79769e+307 -1.79769e+307)
        0.135             (-1.79769e+307 -1.79769e+307 -1.79769e+307)             (-1.79769e+307 -1.79769e+307 -1.79769e+307)             (-1.79769e+307 -1.79769e+307 -1.79769e+307)             (-1.79769e+307 -1.79769e+307 -1.79769e+307)             (-1.79769e+307 -1.79769e+307 -1.79769e+307)             (-1.79769e+307 -1.79769e+307 -1.79769e+307)
         0.14             (-1.79769e+307 -1.79769e+307 -1.79769e+307)             (-1.79769e+307 -1.79769e+307 -1.79769e+307)             (-1.79769e+307 -1.79769e+307 -1.79769e+307)             (-1.79769e+307 -1.79769e+307 -1.79769e+307)             (-1.79769e+307 -1.79769e+307 -1.79769e+307)             (-1.79769e+307 -1.79769e+307 -1.79769e+307)
        0.145             (-1.79769e+307 -1.79769e+307 -1.79769e+307)             (-1.79769e+307 -1.79769e+307 -1.79769e+307)             (-1.79769e+307 -1.79769e+307 -1.79769e+307)             (-1.79769e+307 -1.79769e+307 -1.79769e+307)             (-1.79769e+307 -1.79769e+307 -1.79769e+307)             (-1.79769e+307 -1.79769e+307 -1.79769e+307)
         0.15             (-1.79769e+307 -1.79769e+307 -1.79769e+307)             (-1.79769e+307 -1.79769e+307 -1.79769e+307)             (-1.79769e+307 -1.79769e+307 -1.79769e+307)             (-1.79769e+307 -1.79769e+307 -1.79769e+307)             (-1.79769e+307 -1.79769e+307 -1.79769e+307)             (-1.79769e+307 -1.79769e+307 -1.79769e+307)
        0.155             (-1.79769e+307 -1.79769e+307 -1.79769e+307)             (-1.79769e+307 -1.79769e+307 -1.79769e+307)             (-1.79769e+307 -1.79769e+307 -1.79769e+307)             (-1.79769e+307 -1.79769e+307 -1.79769e+307)             (-1.79769e+307 -1.79769e+307 -1.79769e+307)             (-1.79769e+307 -1.79769e+307 -1.79769e+307)
         0.16             (-1.79769e+307 -1.79769e+307 -1.79769e+307)             (-1.79769e+307 -1.79769e+307 -1.79769e+307)             (-1.79769e+307 -1.79769e+307 -1.79769e+307)             (-1.79769e+307 -1.79769e+307 -1.79769e+307)             (-1.79769e+307 -1.79769e+307 -1.79769e+307)             (-1.79769e+307 -1.79769e+307 -1.79769e+307)
        0.165             (-1.79769e+307 -1.79769e+307 -1.79769e+307)             (-1.79769e+307 -1.79769e+307 -1.79769e+307)             (-1.79769e+307 -1.79769e+307 -1.79769e+307)             (-1.79769e+307 -1.79769e+307 -1.79769e+307)             (-1.79769e+307 -1.79769e+307 -1.79769e+307)             (-1.79769e+307 -1.79769e+307 -1.79769e+307)
         0.17             (-1.79769e+307 -1.79769e+307 -1.79769e+307)             (-1.79769e+307 -1.79769e+307 -1.79769e+307)             (-1.79769e+307 -1.79769e+307 -1.79769e+307)             (-1.79769e+307 -1.79769e+307 -1.79769e+307)             (-1.79769e+307 -1.79769e+307 -1.79769e+307)             (-1.79769e+307 -1.79769e+307 -1.79769e+307)
        0.175             (-1.79769e+307 -1.79769e+307 -1.79769e+307)             (-1.79769e+307 -1.79769e+307 -1.79769e+307)             (-1.79769e+307 -1.79769e+307 -1.79769e+307)             (-1.79769e+307 -1.79769e+307 -1.79769e+307)             (-1.79769e+307 -1.79769e+307 -1.79769e+307)             (-1.79769e+307 -1.79769e+307 -1.79769e+307)
         0.18             (-1.79769e+307 -1.79769e+307 -1.79769e+307)             (-1.79769e+307 -1.79769e+307 -1.79769e+307)             (-1.79769e+307 -1.79769e+307 -1.79769e+307)             (-1.79769e+307 -1.79769e+307 -1.79769e+307)             (-1.79769e+307 -1.79769e+307 -1.79769e+307)             (-1.79769e+307 -1.79769e+307 -1.79769e+307)
        0.185             (-1.79769e+307 -1.79769e+307 -1.79769e+307)             (-1.79769e+307 -1.79769e+307 -1.79769e+307)             (-1.79769e+307 -1.79769e+307 -1.79769e+307)             (-1.79769e+307 -1.79769e+307 -1.79769e+307)             (-1.79769e+307 -1.79769e+307 -1.79769e+307)             (-1.79769e+307 -1.79769e+307 -1.79769e+307)
         0.19             (-1.79769e+307 -1.79769e+307 -1.79769e+307)             (-1.79769e+307 -1.79769e+307 -1.79769e+307)             (-1.79769e+307 -1.79769e+307 -1.79769e+307)             (-1.79769e+307 -1.79769e+307 -1.79769e+307)             (-1.79769e+307 -1.79769e+307 -1.79769e+307)             (-1.79769e+307 -1.79769e+307 -1.79769e+307)
        0.195             (-1.79769e+307 -1.79769e+307 -1.79769e+307)             (-1.79769e+307 -1.79769e+307 -1.79769e+307)             (-1.79769e+307 -1.79769e+307 -1.79769e+307)             (-1.79769e+307 -1.79769e+307 -1.79769e+307)             (-1.79769e+307 -1.79769e+307 -1.79769e+307)             (-1.79769e+307 -1.79769e+307 -1.79769e+307)
          0.2             (-1.79769e+307 -1.79769e+307 -1.79769e+307)             (-1.79769e+307 -1.79769e+307 -1.79769e+307)             (-1.79769e+307 -1.79769e+307 -1.79769e+307)             (-1.79769e+307 -1.79769e+307 -1.79769e+307)             (-1.79769e+307 -1.79769e+307 -1.79769e+307)             (-1.79769e+307 -1.79769e+307 -1.79769e+307)
        0.205             (-1.79769e+307 -1.79769e+307 -1.79769e+307)             (-1.79769e+307 -1.79769e+307 -1.79769e+307)             (-1.79769e+307 -1.79769e+307 -1.79769e+307)             (-1.79769e+307 -1.79769e+307 -1.79769e+307)             (-1.79769e+307 -1.79769e+307 -1.79769e+307)             (-1.79769e+307 -1.79769e+307 -1.79769e+307)
         0.21             (-1.79769e+307 -1.79769e+307 -1.79769e+307)             (-1.79769e+307 -1.79769e+307 -1.79769e+307)             (-1.79769e+307 -1.79769e+307 -1.79769e+307)             (-1.79769e+307 -1.79769e+307 -1.79769e+307)             (-1.79769e+307 -1.79769e+307 -1.79769e+307)             (-1.79769e+307 -1.79769e+307 -1.79769e+307)
        0.215             (-1.79769e+307 -1.79769e+307 -1.79769e+307)             (-1.79769e+307 -1.79769e+307 -1.79769e+307)             (-1.79769e+307 -1.79769e+307 -1.79769e+307)             (-1.79769e+307 -1.79769e+307 -1.79769e+307)             (-1.79769e+307 -1.79769e+307 -1.79769e+307)             (-1.79769e+307 -1.79769e+307 -1.79769e+307)
         0.22             (-1.79769e+307 -1.79769e+307 -1.79769e+307)             (-1.79769e+307 -1.79769e+307 -1.79769e+307)             (-1.79769e+307 -1.79769e+307 -1.79769e+307)             (-1.79769e+307 -1.79769e+307 -1.79769e+307)             (-1.79769e+307 -1.79769e+307 -1.79769e+307)             (-1.79769e+307 -1.79769e+307 -1.79769e+307)
        0.225             (-1.79769e+307 -1.79769e+307 -1.79769e+307)             (-1.79769e+307 -1.79769e+307 -1.79769e+307)             (-1.79769e+307 -1.79769e+307 -1.79769e+307)             (-1.79769e+307 -1.79769e+307 -1.79769e+307)             (-1.79769e+307 -1.79769e+307 -1.79769e+307)             (-1.79769e+307 -1.79769e+307 -1.79769e+307)
         0.23             (-1.79769e+307 -1.79769e+307 -1.79769e+307)             (-1.79769e+307 -1.79769e+307 -1.79769e+307)             (-1.79769e+307 -1.79769e+307 -1.79769e+307)             (-1.79769e+307 -1.79769e+307 -1.79769e+307)             (-1.79769e+307 -1.79769e+307 -1.79769e+307)             (-1.79769e+307 -1.79769e+307 -1.79769e+307)
        0.235             (-1.79769e+307 -1.79769e+307 -1.79769e+307)             (-1.79769e+307 -1.79769e+307 -1.79769e+307)             (-1.79769e+307 -1.79769e+307 -1.79769e+307)             (-1.79769e+307 -1.79769e+307 -1.79769e+307)             (-1.79769e+307 -1.79769e+307 -1.79769e+307)             (-1.79769e+307 -1.79769e+307 -1.79769e+307)
         0.24             (-1.79769e+307 -1.79769e+307 -1.79769e+307)             (-1.79769e+307 -1.79769e+307 -1.79769e+307)             (-1.79769e+307 -1.79769e+307 -1.79769e+307)             (-1.79769e+307 -1.79769e+307 -1.79769e+307)             (-1.79769e+307 -1.79769e+307 -1.79769e+307)             (-1.79769e+307 -1.79769e+307 -1.79769e+307)
        0.245             (-1.79769e+307 -1.79769e+307 -1.79769e+307)             (-1.79769e+307 -1.79769e+307 -1.79769e+307)             (-1.79769e+307 -1.79769e+307 -1.79769e+307)             (-1.79769e+307 -1.79769e+307 -1.79769e+307)             (-1.79769e+307 -1.79769e+307 -1.79769e+307)             (-1.79769e+307 -1.79769e+307 -1.79769e+307)
         0.25             (-1.79769e+307 -1.79769e+307 -1.79769e+307)             (-1.79769e+307 -1.79769e+307 -1.79769e+307)             (-1.79769e+307 -1.79769e+307 -1.79769e+307)             (-1.79769e+307 -1.79769e+307 -1.79769e+307)             (-1.79769e+307 -1.79769e+307 -1.79769e+307)             (-1.79769e+307 -1.79769e+307 -1.79769e+307)
        0.255             (-1.79769e+307 -1.79769e+307 -1.79769e+307)             (-1.79769e+307 -1.79769e+307 -1.79769e+307)             (-1.79769e+307 -1.79769e+307 -1.79769e+307)             (-1.79769e+307 -1.79769e+307 -1.79769e+307)             (-1.79769e+307 -1.79769e+307 -1.79769e+307)             (-1.79769e+307 -1.79769e+307 -1.79769e+307)
         0.26             (-1.79769e+307 -1.79769e+307 -1.79769e+307)             (-1.79769e+307 -1.79769e+307 -1.79769e+307)             (-1.79769e+307 -1.79769e+307 -1.79769e+307)             (-1.79769e+307 -1.79769e+307 -1.79769e+307)             (-1.79769e+307 -1.79769e+307 -1.79769e+307)             (-1.79769e+307 -1.79769e+307 -1.79769e+307)
        0.265             (-1.79769e+307 -1.79769e+307 -1.79769e+307)             (-1.79769e+307 -1.79769e+307 -1.79769e+307)             (-1.79769e+307 -1.79769e+307 -1.79769e+307)             (-1.79769e+307 -1.79769e+307 -1.79769e+307)             (-1.79769e+307 -1.79769e+307 -1.79769e+307)             (-1.79769e+307 -1.79769e+307 -1.79769e+307)
         0.27             (-1.79769e+307 -1.79769e+307 -1.79769e+307)             (-1.79769e+307 -1.79769e+307 -1.79769e+307)             (-1.79769e+307 -1.79769e+307 -1.79769e+307)             (-1.79769e+307 -1.79769e+307 -1.79769e+307)             (-1.79769e+307 -1.79769e+307 -1.79769e+307)             (-1.79769e+307 -1.79769e+307 -1.79769e+307)
        0.275             (-1.79769e+307 -1.79769e+307 -1.79769e+307)             (-1.79769e+307 -1.79769e+307 -1.79769e+307)             (-1.79769e+307 -1.79769e+307 -1.79769e+307)             (-1.79769e+307 -1.79769e+307 -1.79769e+307)             (-1.79769e+307 -1.79769e+307 -1.79769e+307)             (-1.79769e+307 -1.79769e+307 -1.79769e+307)
         0.28             (-1.79769e+307 -1.79769e+307 -1.79769e+307)             (-1.79769e+307 -1.79769e+307 -1.79769e+307)             (-1.79769e+307 -1.79769e+307 -1.79769e+307)             (-1.79769e+307 -1.79769e+307 -1.79769e+307)             (-1.79769e+307 -1.79769e+307 -1.79769e+307)             (-1.79769e+307 -1.79769e+307 -1.79769e+307)
        0.285             (-1.79769e+307 -1.79769e+307 -1.79769e+307)             (-1.79769e+307 -1.79769e+307 -1.79769e+307)             (-1.79769e+307 -1.79769e+307 -1.79769e+307)             (-1.79769e+307 -1.79769e+307 -1.79769e+307)             (-1.79769e+307 -1.79769e+307 -1.79769e+307)             (-1.79769e+307 -1.79769e+307 -1.79769e+307)
         0.29             (-1.79769e+307 -1.79769e+307 -1.79769e+307)             (-1.79769e+307 -1.79769e+307 -1.79769e+307)             (-1.79769e+307 -1.79769e+307 -1.79769e+307)             (-1.79769e+307 -1.79769e+307 -1.79769e+307)             (-1.79769e+307 -1.79769e+307 -1.79769e+307)             (-1.79769e+307 -1.79769e+307 -1.79769e+307)
        0.295             (-1.79769e+307 -1.79769e+307 -1.79769e+307)             (-1.79769e+307 -1.79769e+307 -1.79769e+307)             (-1.79769e+307 -1.79769e+307 -1.79769e+307)             (-1.79769e+307 -1.79769e+307 -1.79769e+307)             (-1.79769e+307 -1.79769e+307 -1.79769e+307)             (-1.79769e+307 -1.79769e+307 -1.79769e+307)
          0.3             (-1.79769e+307 -1.79769e+307 -1.79769e+307)             (-1.79769e+307 -1.79769e+307 -1.79769e+307)             (-1.79769e+307 -1.79769e+307 -1.79769e+307)             (-1.79769e+307 -1.79769e+307 -1.79769e+307)             (-1.79769e+307 -1.79769e+307 -1.79769e+307)             (-1.79769e+307 -1.79769e+307 -1.79769e+307)
        0.305             (-1.79769e+307 -1.79769e+307 -1.79769e+307)             (-1.79769e+307 -1.79769e+307 -1.79769e+307)             (-1.79769e+307 -1.79769e+307 -1.79769e+307)             (-1.79769e+307 -1.79769e+307 -1.79769e+307)             (-1.79769e+307 -1.79769e+307 -1.79769e+307)             (-1.79769e+307 -1.79769e+307 -1.79769e+307)
         0.31             (-1.79769e+307 -1.79769e+307 -1.79769e+307)             (-1.79769e+307 -1.79769e+307 -1.79769e+307)             (-1.79769e+307 -1.79769e+307 -1.79769e+307)             (-1.79769e+307 -1.79769e+307 -1.79769e+307)             (-1.79769e+307 -1.79769e+307 -1.79769e+307)             (-1.79769e+307 -1.79769e+307 -1.79769e+307)
        0.315             (-1.79769e+307 -1.79769e+307 -1.79769e+307)             (-1.79769e+307 -1.79769e+307 -1.79769e+307)             (-1.79769e+307 -1.79769e+307 -1.79769e+307)             (-1.79769e+307 -1.79769e+307 -1.79769e+307)             (-1.79769e+307 -1.79769e+307 -1.79769e+307)             (-1.79769e+307 -1.79769e+307 -1.79769e+307)
         0.32             (-1.79769e+307 -1.79769e+307 -1.79769e+307)             (-1.79769e+307 -1.79769e+307 -1.79769e+307)             (-1.79769e+307 -1.79769e+307 -1.79769e+307)             (-1.79769e+307 -1.79769e+307 -1.79769e+307)             (-1.79769e+307 -1.79769e+307 -1.79769e+307)             (-1.79769e+307 -1.79769e+307 -1.79769e+307)
        0.325             (-1.79769e+307 -1.79769e+307 -1.79769e+307)             (-1.79769e+307 -1.79769e+307 -1.79769e+307)             (-1.79769e+307 -1.79769e+307 -1.79769e+307)             (-1.79769e+307 -1.79769e+307 -1.79769e+307)             (-1.79769e+307 -1.79769e+307 -1.79769e+307)             (-1.79769e+307 -1.79769e+307 -1.79769e+307)
         0.33             (-1.79769e+307 -1.79769e+307 -1.79769e+307)             (-1.79769e+307 -1.79769e+307 -1.79769e+307)             (-1.79769e+307 -1.79769e+307 -1.79769e+307)             (-1.79769e+307 -1.79769e+307 -1.79769e+307)             (-1.79769e+307 -1.79769e+307 -1.79769e+307)             (-1.79769e+307 -1.79769e+307 -1.79769e+307)
        0.335             (-1.79769e+307 -1.79769e+307 -1.79769e+307)             (-1.79769e+307 -1.79769e+307 -1.79769e+307)             (-1.79769e+307 -1.79769e+307 -1.79769e+307)             (-1.79769e+307 -1.79769e+307 -1.79769e+307)             (-1.79769e+307 -1.79769e+307 -1.79769e+307)             (-1.79769e+307 -1.79769e+307 -1.79769e+307)
         0.34             (-1.79769e+307 -1.79769e+307 -1.79769e+307)             (-1.79769e+307 -1.79769e+307 -1.79769e+307)             (-1.79769e+307 -1.79769e+307 -1.79769e+307)             (-1.79769e+307 -1.79769e+307 -1.79769e+307)             (-1.79769e+307 -1.79769e+307 -1.79769e+307)             (-1.79769e+307 -1.79769e+307 -1.79769e+307)
        0.345             (-1.79769e+307 -1.79769e+307 -1.79769e+307)             (-1.79769e+307 -1.79769e+307 -1.79769e+307)             (-1.79769e+307 -1.79769e+307 -1.79769e+307)             (-1.79769e+307 -1.79769e+307 -1.79769e+307)             (-1.79769e+307 -1.79769e+307 -1.79769e+307)             (-1.79769e+307 -1.79769e+307 -1.79769e+307)
         0.35             (-1.79769e+307 -1.79769e+307 -1.79769e+307)             (-1.79769e+307 -1.79769e+307 -1.79769e+307)             (-1.79769e+307 -1.79769e+307 -1.79769e+307)             (-1.79769e+307 -1.79769e+307 -1.79769e+307)             (-1.79769e+307 -1.79769e+307 -1.79769e+307)             (-1.79769e+307 -1.79769e+307 -1.79769e+307)
        0.355             (-1.79769e+307 -1.79769e+307 -1.79769e+307)             (-1.79769e+307 -1.79769e+307 -1.79769e+307)             (-1.79769e+307 -1.79769e+307 -1.79769e+307)             (-1.79769e+307 -1.79769e+307 -1.79769e+307)             (-1.79769e+307 -1.79769e+307 -1.79769e+307)             (-1.79769e+307 -1.79769e+307 -1.79769e+307)
         0.36             (-1.79769e+307 -1.79769e+307 -1.79769e+307)             (-1.79769e+307 -1.79769e+307 -1.79769e+307)             (-1.79769e+307 -1.79769e+307 -1.79769e+307)             (-1.79769e+307 -1.79769e+307 -1.79769e+307)             (-1.79769e+307 -1.79769e+307 -1.79769e+307)             (-1.79769e+307 -1.79769e+307 -1.79769e+307)
        0.365             (-1.79769e+307 -1.79769e+307 -1.79769e+307)             (-1.79769e+307 -1.79769e+307 -1.79769e+307)             (-1.79769e+307 -1.79769e+307 -1.79769e+307)             (-1.79769e+307 -1.79769e+307 -1.79769e+307)             (-1.79769e+307 -1.79769e+307 -1.79769e+307)             (-1.79769e+307 -1.79769e+307 -1.79769e+307)
         0.37             (-1.79769e+307 -1.79769e+307 -1.79769e+307)             (-1.79769e+307 -1.79769e+307 -1.79769e+307)             (-1.79769e+307 -1.79769e+307 -1.79769e+307)             (-1.79769e+307 -1.79769e+307 -1.79769e+307)             (-1.79769e+307 -1.79769e+307 -1.79769e+307)             (-1.79769e+307 -1.79769e+307 -1.79769e+307)
        0.375             (-1.79769e+307 -1.79769e+307 -1.79769e+307)             (-1.79769e+307 -1.79769e+307 -1.79769e+307)             (-1.79769e+307 -1.79769e+307 -1.79769e+307)             (-1.79769e+307 -1.79769e+307 -1.79769e+307)             (-1.79769e+307 -1.79769e+307 -1.79769e+307)             (-1.79769e+307 -1.79769e+307 -1.79769e+307)
         0.38             (-1.79769e+307 -1.79769e+307 -1.79769e+307)             (-1.79769e+307 -1.79769e+307 -1.79769e+307)             (-1.79769e+307 -1.79769e+307 -1.79769e+307)             (-1.79769e+307 -1.79769e+307 -1.79769e+307)             (-1.79769e+307 -1.79769e+307 -1.79769e+307)             (-1.79769e+307 -1.79769e+307 -1.79769e+307)
        0.385             (-1.79769e+307 -1.79769e+307 -1.79769e+307)             (-1.79769e+307 -1.79769e+307 -1.79769e+307)             (-1.79769e+307 -1.79769e+307 -1.79769e+307)             (-1.79769e+307 -1.79769e+307 -1.79769e+307)             (-1.79769e+307 -1.79769e+307 -1.79769e+307)             (-1.79769e+307 -1.79769e+307 -1.79769e+307)
         0.39             (-1.79769e+307 -1.79769e+307 -1.79769e+307)             (-1.79769e+307 -1.79769e+307 -1.79769e+307)             (-1.79769e+307 -1.79769e+307 -1.79769e+307)             (-1.79769e+307 -1.79769e+307 -1.79769e+307)             (-1.79769e+307 -1.79769e+307 -1.79769e+307)             (-1.79769e+307 -1.79769e+307 -1.79769e+307)
        0.395             (-1.79769e+307 -1.79769e+307 -1.79769e+307)             (-1.79769e+307 -1.79769e+307 -1.79769e+307)             (-1.79769e+307 -1.79769e+307 -1.79769e+307)             (-1.79769e+307 -1.79769e+307 -1.79769e+307)             (-1.79769e+307 -1.79769e+307 -1.79769e+307)             (-1.79769e+307 -1.79769e+307 -1.79769e+307)
          0.4             (-1.79769e+307 -1.79769e+307 -1.79769e+307)             (-1.79769e+307 -1.79769e+307 -1.79769e+307)             (-1.79769e+307 -1.79769e+307 -1.79769e+307)             (-1.79769e+307 -1.79769e+307 -1.79769e+307)             (-1.79769e+307 -1.79769e+307 -1.79769e+307)             (-1.79769e+307 -1.79769e+307 -1.79769e+307)
        0.405             (-1.79769e+307 -1.79769e+307 -1.79769e+307)             (-1.79769e+307 -1.79769e+307 -1.79769e+307)             (-1.79769e+307 -1.79769e+307 -1.79769e+307)             (-1.79769e+307 -1.79769e+307 -1.79769e+307)             (-1.79769e+307 -1.79769e+307 -1.79769e+307)             (-1.79769e+307 -1.79769e+307 -1.79769e+307)
         0.41             (-1.79769e+307 -1.79769e+307 -1.79769e+307)             (-1.79769e+307 -1.79769e+307 -1.79769e+307)             (-1.79769e+307 -1.79769e+307 -1.79769e+307)             (-1.79769e+307 -1.79769e+307 -1.79769e+307)             (-1.79769e+307 -1.79769e+307 -1.79769e+307)             (-1.79769e+307 -1.79769e+307 -1.79769e+307)
        0.415             (-1.79769e+307 -1.79769e+307 -1.79769e+307)             (-1.79769e+307 -1.79769e+307 -1.79769e+307)             (-1.79769e+307 -1.79769e+307 -1.79769e+307)             (-1.79769e+307 -1.79769e+307 -1.79769e+307)             (-1.79769e+307 -1.79769e+307 -1.79769e+307)             (-1.79769e+307 -1.79769e+307 -1.79769e+307)
         0.42             (-1.79769e+307 -1.79769e+307 -1.79769e+307)             (-1.79769e+307 -1.79769e+307 -1.79769e+307)             (-1.79769e+307 -1.79769e+307 -1.79769e+307)             (-1.79769e+307 -1.79769e+307 -1.79769e+307)             (-1.79769e+307 -1.79769e+307 -1.79769e+307)             (-1.79769e+307 -1.79769e+307 -1.79769e+307)