/*--------------------------------*- C++ -*----------------------------------*\
  =========                 |
  \\      /  F ield         | OpenFOAM: The Open Source CFD Toolbox
   \\    /   O peration     | Website:  https://openfoam.org
    \\  /    A nd           | Version:  7
     \\/     M anipulation  |
\*---------------------------------------------------------------------------*/
FoamFile
{
    version     2.0;
    format      ascii;
    class       volScalarField;
    location    "5";
    object      p;
}
// * * * * * * * * * * * * * * * * * * * * * * * * * * * * * * * * * * * * * //

dimensions      [0 2 -2 0 0 0 0];

internalField   nonuniform List<scalar> 
16660
(
-0.343198
-0.354111
-0.359246
-0.369616
-0.382704
-0.399268
-0.418325
-0.438946
-0.459541
-0.478037
-0.491857
-0.498225
-0.49471
-0.475452
-0.343883
-0.35463
-0.359765
-0.370124
-0.38323
-0.399835
-0.418964
-0.439696
-0.46045
-0.47916
-0.493269
-0.499916
-0.496976
-0.477692
-0.345228
-0.355645
-0.36078
-0.371113
-0.384252
-0.400927
-0.420189
-0.441128
-0.462183
-0.48129
-0.49595
-0.503094
-0.501287
-0.481924
-0.347185
-0.357117
-0.362244
-0.372532
-0.385706
-0.402471
-0.421907
-0.443119
-0.464576
-0.484211
-0.49964
-0.507383
-0.507228
-0.487696
-0.349687
-0.358989
-0.364095
-0.374307
-0.387507
-0.404359
-0.423981
-0.445496
-0.467409
-0.487628
-0.503986
-0.512293
-0.514242
-0.494422
-0.352649
-0.361188
-0.366252
-0.376349
-0.389547
-0.40646
-0.426248
-0.448049
-0.470419
-0.491194
-0.508581
-0.517283
-0.521691
-0.501458
-0.355974
-0.363637
-0.368626
-0.378557
-0.391706
-0.408629
-0.428528
-0.450554
-0.473326
-0.494547
-0.512999
-0.521823
-0.528926
-0.508084
-0.359561
-0.366251
-0.371124
-0.380823
-0.393858
-0.410714
-0.430638
-0.452783
-0.475857
-0.49734
-0.516826
-0.525432
-0.535356
-0.513607
-0.363303
-0.368947
-0.373653
-0.383043
-0.39588
-0.412568
-0.432403
-0.454525
-0.477763
-0.499278
-0.519711
-0.527745
-0.54035
-0.51798
-0.3671
-0.371647
-0.376125
-0.385119
-0.397656
-0.414058
-0.433666
-0.455599
-0.478839
-0.50014
-0.521345
-0.528792
-0.542913
-0.520869
-0.370856
-0.374284
-0.378464
-0.386966
-0.399089
-0.41507
-0.4343
-0.455867
-0.478938
-0.499854
-0.521283
-0.528493
-0.543613
-0.52182
-0.374489
-0.3768
-0.380607
-0.388515
-0.4001
-0.41552
-0.434213
-0.455253
-0.477914
-0.498393
-0.519749
-0.526505
-0.542393
-0.520829
-0.377934
-0.379146
-0.382508
-0.389721
-0.400638
-0.415355
-0.433372
-0.453703
-0.475797
-0.495679
-0.516825
-0.523025
-0.539272
-0.51801
-0.38113
-0.381298
-0.384149
-0.390552
-0.400678
-0.414554
-0.431752
-0.451246
-0.472636
-0.491833
-0.512577
-0.51829
-0.534372
-0.513524
-0.384041
-0.383242
-0.385508
-0.391012
-0.400225
-0.413137
-0.429392
-0.447951
-0.468522
-0.487036
-0.507177
-0.512535
-0.527848
-0.507527
-0.386646
-0.384973
-0.386592
-0.391119
-0.399311
-0.411154
-0.426373
-0.443932
-0.463597
-0.481058
-0.500815
-0.505967
-0.519864
-0.500119
-0.38894
-0.386501
-0.387425
-0.39091
-0.397993
-0.408688
-0.422807
-0.439342
-0.458087
-0.474903
-0.493751
-0.49874
-0.510604
-0.491331
-0.390932
-0.387843
-0.388039
-0.390438
-0.396349
-0.405844
-0.418833
-0.434353
-0.452177
-0.468346
-0.486181
-0.490931
-0.500276
-0.481169
-0.392645
-0.389025
-0.388476
-0.389768
-0.394472
-0.402748
-0.414607
-0.429147
-0.446076
-0.461573
-0.478261
-0.482551
-0.489092
-0.469695
-0.394115
-0.390081
-0.388783
-0.388972
-0.392463
-0.399532
-0.41029
-0.423896
-0.439951
-0.454724
-0.470088
-0.473586
-0.477234
-0.457084
-0.395388
-0.391045
-0.389012
-0.388126
-0.390429
-0.39633
-0.406037
-0.418763
-0.433937
-0.447882
-0.461695
-0.46403
-0.46484
-0.443617
-0.39652
-0.39196
-0.389218
-0.387304
-0.388471
-0.393268
-0.401984
-0.413871
-0.428123
-0.441083
-0.453077
-0.453917
-0.452025
-0.429626
-0.397574
-0.392867
-0.389454
-0.38658
-0.386685
-0.390458
-0.39825
-0.409307
-0.422547
-0.434328
-0.444206
-0.443322
-0.438912
-0.415436
-0.39862
-0.393813
-0.389776
-0.386021
-0.385156
-0.38799
-0.394913
-0.405119
-0.417202
-0.42759
-0.435064
-0.432363
-0.425627
-0.401309
-0.399728
-0.394844
-0.390237
-0.38569
-0.383954
-0.385937
-0.39202
-0.401312
-0.412058
-0.420827
-0.425661
-0.421177
-0.412253
-0.38744
-0.400972
-0.396008
-0.390888
-0.38564
-0.383135
-0.384337
-0.389584
-0.397859
-0.407069
-0.413994
-0.416053
-0.409902
-0.398763
-0.373995
-0.402422
-0.397349
-0.391775
-0.385915
-0.382733
-0.383204
-0.387582
-0.394712
-0.402187
-0.407056
-0.40635
-0.398658
-0.38509
-0.361187
-0.404144
-0.398908
-0.392938
-0.386546
-0.382764
-0.382523
-0.385972
-0.391807
-0.397358
-0.400003
-0.396688
-0.387554
-0.371476
-0.349237
-0.406191
-0.400723
-0.394407
-0.387548
-0.38322
-0.382259
-0.384696
-0.389071
-0.392537
-0.392854
-0.387182
-0.376676
-0.358825
-0.338038
-0.408607
-0.402828
-0.396204
-0.388926
-0.384076
-0.38236
-0.383689
-0.386428
-0.387687
-0.385653
-0.377894
-0.366076
-0.347461
-0.327699
-0.411421
-0.405247
-0.398338
-0.390666
-0.385291
-0.38277
-0.382878
-0.383805
-0.382785
-0.378454
-0.368859
-0.355895
-0.336906
-0.317713
-0.414662
-0.407993
-0.400813
-0.392745
-0.386816
-0.38343
-0.382184
-0.38114
-0.377824
-0.371305
-0.360107
-0.346148
-0.327011
-0.308282
-0.418348
-0.41107
-0.403624
-0.395132
-0.388605
-0.384284
-0.381529
-0.378388
-0.372807
-0.364246
-0.351647
-0.336843
-0.317668
-0.29927
-0.422485
-0.414483
-0.406763
-0.397793
-0.390619
-0.385266
-0.380836
-0.375517
-0.367743
-0.357302
-0.343481
-0.327959
-0.308793
-0.290683
-0.427073
-0.418235
-0.410217
-0.400695
-0.392826
-0.386309
-0.380042
-0.372511
-0.362643
-0.350489
-0.335598
-0.319463
-0.300331
-0.282462
-0.432105
-0.422328
-0.413972
-0.403817
-0.395192
-0.38734
-0.379099
-0.36936
-0.357518
-0.343813
-0.327981
-0.311317
-0.292228
-0.27457
-0.437574
-0.426763
-0.418014
-0.407145
-0.397677
-0.388293
-0.377968
-0.366063
-0.352375
-0.337268
-0.320606
-0.303479
-0.284438
-0.266962
-0.44347
-0.431544
-0.422328
-0.410675
-0.400231
-0.389109
-0.376626
-0.362619
-0.347215
-0.330844
-0.313445
-0.295909
-0.276915
-0.259598
-0.449784
-0.436671
-0.426905
-0.414403
-0.402793
-0.389737
-0.375055
-0.359031
-0.342038
-0.324525
-0.306468
-0.288566
-0.269619
-0.25244
-0.456505
-0.442141
-0.431737
-0.418314
-0.405298
-0.390137
-0.373246
-0.355298
-0.336838
-0.318293
-0.299644
-0.281412
-0.262512
-0.245453
-0.463622
-0.447943
-0.436821
-0.422378
-0.40768
-0.390274
-0.371189
-0.351419
-0.331606
-0.312124
-0.292942
-0.274411
-0.255559
-0.238604
-0.47112
-0.454059
-0.442156
-0.426544
-0.409881
-0.390122
-0.368878
-0.347388
-0.32633
-0.305997
-0.28633
-0.267529
-0.248727
-0.231865
-0.478978
-0.460466
-0.447735
-0.430742
-0.411843
-0.389656
-0.366307
-0.3432
-0.320992
-0.299885
-0.279778
-0.260733
-0.241986
-0.225207
-0.487168
-0.467131
-0.453541
-0.43489
-0.413515
-0.388856
-0.363468
-0.338845
-0.315577
-0.293764
-0.273257
-0.253995
-0.235307
-0.218606
-0.495651
-0.474016
-0.459536
-0.438898
-0.414849
-0.3877
-0.360351
-0.334309
-0.310065
-0.287609
-0.266741
-0.247286
-0.228666
-0.212039
-0.504374
-0.481079
-0.465661
-0.442677
-0.415798
-0.386171
-0.356944
-0.329578
-0.304436
-0.281395
-0.260202
-0.240581
-0.222039
-0.205484
-0.513269
-0.488272
-0.471829
-0.446142
-0.416316
-0.384247
-0.353233
-0.324636
-0.298668
-0.2751
-0.253617
-0.233858
-0.215403
-0.198923
-0.522255
-0.495543
-0.477931
-0.449212
-0.416361
-0.381908
-0.349203
-0.319465
-0.292742
-0.268698
-0.246962
-0.227093
-0.20874
-0.192338
-0.531234
-0.502829
-0.483839
-0.451809
-0.415891
-0.379132
-0.344836
-0.314044
-0.286635
-0.262169
-0.240215
-0.220267
-0.20203
-0.185712
-0.5401
-0.510057
-0.489415
-0.453859
-0.414866
-0.375895
-0.340114
-0.308355
-0.280327
-0.255491
-0.233358
-0.213362
-0.195257
-0.179032
-0.548735
-0.517143
-0.494517
-0.45529
-0.413248
-0.372175
-0.335015
-0.302377
-0.273796
-0.248644
-0.22637
-0.20636
-0.188406
-0.172285
-0.557015
-0.523988
-0.499007
-0.456033
-0.411001
-0.367948
-0.32952
-0.296089
-0.267025
-0.24161
-0.219235
-0.199246
-0.181461
-0.165458
-0.564813
-0.530479
-0.502755
-0.456022
-0.408089
-0.363188
-0.323607
-0.289472
-0.259993
-0.23437
-0.211938
-0.192006
-0.174411
-0.158541
-0.572002
-0.536491
-0.505643
-0.455192
-0.404481
-0.357873
-0.317257
-0.282507
-0.252684
-0.22691
-0.204463
-0.184627
-0.167244
-0.151526
-0.578453
-0.541888
-0.507563
-0.453486
-0.400144
-0.35198
-0.310448
-0.275176
-0.24508
-0.219214
-0.196799
-0.177098
-0.15995
-0.144404
-0.584042
-0.546526
-0.508422
-0.450849
-0.39505
-0.345488
-0.303162
-0.267462
-0.237168
-0.211268
-0.188935
-0.169408
-0.15252
-0.137174
-0.588649
-0.550261
-0.508139
-0.447235
-0.389173
-0.338375
-0.295381
-0.259349
-0.228933
-0.203063
-0.180859
-0.161548
-0.144948
-0.129833
-0.592155
-0.552946
-0.506644
-0.442601
-0.382487
-0.330623
-0.287089
-0.250824
-0.220365
-0.194587
-0.172564
-0.15351
-0.137226
-0.12238
-0.594451
-0.554445
-0.503878
-0.436912
-0.374971
-0.322216
-0.278272
-0.241874
-0.211452
-0.185834
-0.164044
-0.145288
-0.12935
-0.1148
-0.595433
-0.554627
-0.499791
-0.430141
-0.366608
-0.31314
-0.268918
-0.23249
-0.202189
-0.176795
-0.155291
-0.136879
-0.121323
-0.107061
-0.595003
-0.553379
-0.49434
-0.422265
-0.357382
-0.303383
-0.259017
-0.222665
-0.192568
-0.167465
-0.146299
-0.128279
-0.113162
-0.0991303
-0.593072
-0.550602
-0.487488
-0.413268
-0.347281
-0.292936
-0.248561
-0.212394
-0.182585
-0.157837
-0.137064
-0.119482
-0.10487
-0.0910383
-0.589559
-0.546211
-0.479208
-0.403137
-0.3363
-0.281794
-0.237549
-0.201669
-0.172232
-0.147912
-0.127592
-0.110496
-0.096382
-0.0828806
-0.584391
-0.540137
-0.469481
-0.391869
-0.324433
-0.269954
-0.225977
-0.190484
-0.161495
-0.137705
-0.117894
-0.101345
-0.0876878
-0.0746282
-0.577505
-0.532328
-0.458296
-0.379463
-0.311684
-0.257415
-0.213836
-0.178837
-0.150384
-0.127238
-0.107963
-0.0920072
-0.0788258
-0.0662594
-0.568847
-0.522746
-0.445653
-0.365925
-0.298055
-0.244173
-0.201112
-0.166759
-0.138986
-0.116439
-0.0978008
-0.0824799
-0.0698127
-0.0577687
-0.558374
-0.511368
-0.431556
-0.351267
-0.283552
-0.23023
-0.187818
-0.154299
-0.127219
-0.105355
-0.0874118
-0.0727678
-0.0606559
-0.0491596
-0.546053
-0.498185
-0.416021
-0.335502
-0.268181
-0.21561
-0.174068
-0.141353
-0.115101
-0.0939988
-0.0768041
-0.0628785
-0.0513601
-0.0404388
-0.531862
-0.483202
-0.39907
-0.31865
-0.251949
-0.200366
-0.159785
-0.127985
-0.102644
-0.0823802
-0.0659869
-0.0528209
-0.041931
-0.0316147
-0.515793
-0.466438
-0.380729
-0.300737
-0.234893
-0.184495
-0.144987
-0.114213
-0.0898627
-0.0705092
-0.0549708
-0.0426045
-0.0323759
-0.0226967
-0.497846
-0.447923
-0.361034
-0.281799
-0.217083
-0.16797
-0.129692
-0.100055
-0.0767737
-0.0583985
-0.0437676
-0.0322402
-0.0227038
-0.0136951
-0.478037
-0.427697
-0.34003
-0.261876
-0.198521
-0.15084
-0.113924
-0.085529
-0.0633944
-0.0460623
-0.0323906
-0.0217394
-0.0129253
-0.0046214
-0.456394
-0.405809
-0.317765
-0.241013
-0.17923
-0.133139
-0.097708
-0.0706562
-0.0497438
-0.0335171
-0.0208544
-0.0111148
-0.00305201
0.00451175
-0.432956
-0.38234
-0.294272
-0.219248
-0.159247
-0.114901
-0.0810725
-0.0554596
-0.0358428
-0.0207808
-0.00917498
-0.000380092
0.00690287
0.0136901
-0.407783
-0.357424
-0.269542
-0.196612
-0.138615
-0.0961612
-0.0640484
-0.0399651
-0.0217138
-0.00787307
0.00263053
0.01045
0.0169247
0.022897
-0.380946
-0.331213
-0.24357
-0.173141
-0.117382
-0.0769597
-0.046669
-0.0242004
-0.00738088
0.00518505
0.0145438
0.0213595
0.0269965
0.0321122
-0.352517
-0.303656
-0.216571
-0.148897
-0.0956003
-0.0573394
-0.0289699
-0.00819562
0.00713023
0.0183712
0.0265454
0.0323316
0.0371
0.0413112
-0.322573
-0.274427
-0.189035
-0.123985
-0.0733197
-0.0373451
-0.0109892
0.00801745
0.0217923
0.0316618
0.0386148
0.0433493
0.0472183
0.0504692
-0.291223
-0.243898
-0.160796
-0.0984896
-0.0505961
-0.0170237
0.0072335
0.0244052
0.0365767
0.0450315
0.0507301
0.0543962
0.0573393
0.0595676
-0.258563
-0.21224
-0.131849
-0.0724863
-0.0274894
0.00357578
0.0256563
0.0409325
0.0514533
0.058454
0.0628687
0.0654586
0.0674535
0.0685831
-0.224628
-0.179691
-0.102257
-0.0460482
-0.00406193
0.0244021
0.0442358
0.0575627
0.0663907
0.0719016
0.0750105
0.0765283
0.077535
0.0774084
-0.189586
-0.146371
-0.0721068
-0.019249
0.0196221
0.0454021
0.0629271
0.0742579
0.0813562
0.085347
0.0871409
0.0876005
0.0875115
0.0857566
-0.1536
-0.112376
-0.0414979
0.00783415
0.0434964
0.0665205
0.0816837
0.0909786
0.0963156
0.098764
0.0992485
0.0986566
0.0972631
0.0933956
-0.116811
-0.0778191
-0.0105337
0.0351211
0.0674931
0.0877007
0.100458
0.107684
0.111234
0.112127
0.111314
0.109637
0.106703
0.100876
-0.0793651
-0.0428271
0.0206796
0.062529
0.0915427
0.108885
0.119201
0.124333
0.126078
0.125409
0.123301
0.120449
0.115837
0.109675
-0.0414124
-0.00753008
0.0520333
0.089973
0.115574
0.130013
0.137863
0.140883
0.140811
0.138581
0.135162
0.131059
0.125035
0.118816
-0.00310814
0.0279383
0.0834178
0.117366
0.139516
0.151026
0.156393
0.157292
0.155399
0.151611
0.146867
0.141494
0.134292
0.127842
0.0353904
0.0634429
0.114723
0.144622
0.163295
0.171863
0.174741
0.173516
0.169806
0.164466
0.158386
0.15176
0.14353
0.136691
0.0739239
0.0988476
0.145837
0.17165
0.186838
0.192463
0.192855
0.189512
0.183994
0.177111
0.169695
0.161847
0.152666
0.145297
0.112332
0.134016
0.176652
0.198363
0.210072
0.212764
0.210684
0.205238
0.197928
0.189516
0.180773
0.171735
0.161648
0.153649
0.150456
0.168813
0.207056
0.224673
0.232924
0.232707
0.228176
0.220651
0.21157
0.201647
0.191593
0.1814
0.170432
0.161741
0.188136
0.203102
0.236942
0.250491
0.255321
0.252229
0.245282
0.235707
0.224884
0.213475
0.202133
0.190817
0.178987
0.169566
0.225216
0.23675
0.266203
0.275732
0.277192
0.271273
0.261951
0.250364
0.237834
0.224968
0.212366
0.19996
0.187288
0.177115
0.261542
0.269624
0.294733
0.300309
0.298466
0.289778
0.278133
0.264581
0.250384
0.236097
0.222266
0.208805
0.195313
0.18438
0.29696
0.301598
0.32243
0.324139
0.319073
0.307687
0.293781
0.278317
0.2625
0.246833
0.23181
0.217329
0.203041
0.191349
0.331323
0.332546
0.349195
0.347141
0.338948
0.324944
0.308847
0.291532
0.274148
0.257146
0.240973
0.22551
0.210454
0.19801
0.364485
0.362348
0.374931
0.369237
0.358023
0.341496
0.323286
0.304188
0.285296
0.26701
0.24973
0.233327
0.217533
0.204351
0.396308
0.39089
0.399544
0.39035
0.376237
0.357288
0.337053
0.316247
0.295912
0.276397
0.258059
0.240759
0.224261
0.21036
0.426658
0.418061
0.422946
0.410408
0.393529
0.372271
0.350107
0.327675
0.305967
0.285282
0.265939
0.247789
0.230622
0.216027
0.455407
0.443756
0.445052
0.429341
0.409842
0.386398
0.362407
0.338438
0.31543
0.293641
0.273347
0.254397
0.2366
0.221338
0.482435
0.467875
0.465782
0.447084
0.425121
0.399622
0.373916
0.348502
0.324275
0.30145
0.280266
0.260566
0.242179
0.226283
0.507628
0.490326
0.48506
0.463575
0.439315
0.411901
0.384597
0.357838
0.332478
0.308687
0.286675
0.266281
0.247346
0.230853
0.530882
0.511022
0.502818
0.478758
0.452376
0.423195
0.394417
0.366419
0.340012
0.315334
0.292558
0.271526
0.252087
0.235038
0.552097
0.529883
0.51899
0.492578
0.464262
0.433468
0.403346
0.374217
0.346858
0.32137
0.2979
0.276288
0.25639
0.238829
0.571187
0.546837
0.533518
0.504989
0.474931
0.442687
0.411356
0.381211
0.352995
0.326779
0.302685
0.280553
0.260244
0.242218
0.58807
0.561818
0.546349
0.515945
0.484348
0.450821
0.418421
0.387378
0.358405
0.331546
0.3069
0.28431
0.263639
0.245199
0.602676
0.574769
0.557437
0.525411
0.49248
0.457845
0.42452
0.392699
0.363072
0.335657
0.310535
0.287549
0.266565
0.247765
0.614944
0.585641
0.56674
0.533351
0.499301
0.463734
0.429633
0.39716
0.366984
0.339101
0.31358
0.290262
0.269016
0.249911
0.624823
0.59439
0.574225
0.539738
0.504787
0.46847
0.433744
0.400746
0.370127
0.341869
0.316025
0.292441
0.270984
0.251633
0.632271
0.600985
0.579865
0.54455
0.50892
0.472037
0.436839
0.403445
0.372493
0.343952
0.317866
0.29408
0.272464
0.252925
0.637257
0.605398
0.583639
0.54777
0.511685
0.474423
0.43891
0.405251
0.374076
0.345345
0.319096
0.295176
0.273453
0.253788
0.639761
0.607613
0.585534
0.549386
0.513072
0.47562
0.439949
0.406156
0.374869
0.346043
0.319713
0.295726
0.273952
0.254234
0.639771
0.607622
0.585542
0.549393
0.513078
0.475624
0.439952
0.406159
0.374871
0.346044
0.319714
0.295728
0.273954
0.25424
0.637288
0.605425
0.583663
0.54779
0.511701
0.474435
0.43892
0.405258
0.374081
0.345348
0.319099
0.295178
0.273455
0.253789
0.632322
0.601028
0.579903
0.544582
0.508946
0.472057
0.436855
0.403457
0.372501
0.343957
0.317868
0.294081
0.272463
0.252921
0.624893
0.594451
0.574277
0.539782
0.504823
0.468497
0.433765
0.40076
0.370136
0.341874
0.316027
0.29244
0.270981
0.251625
0.615032
0.585717
0.566805
0.533405
0.499345
0.463768
0.429658
0.397177
0.366994
0.339106
0.31358
0.290259
0.269011
0.249899
0.602781
0.57486
0.557514
0.525474
0.492531
0.457883
0.424548
0.392717
0.363082
0.33566
0.310534
0.287545
0.266558
0.24775
0.58819
0.561921
0.546437
0.516017
0.484404
0.450864
0.418451
0.387396
0.358414
0.331548
0.306897
0.284304
0.26363
0.245181
0.57132
0.546951
0.533615
0.505067
0.474992
0.442732
0.411387
0.381229
0.353003
0.326779
0.30268
0.280546
0.260234
0.242197
0.552242
0.530007
0.519095
0.492662
0.464326
0.433515
0.403377
0.374235
0.346865
0.321369
0.297894
0.27628
0.25638
0.238805
0.531035
0.511153
0.502929
0.478845
0.452443
0.423242
0.394448
0.366435
0.340018
0.315332
0.292552
0.271519
0.252077
0.235012
0.507789
0.490464
0.485176
0.463666
0.439383
0.411948
0.384627
0.357854
0.332483
0.308685
0.286669
0.266274
0.247336
0.230826
0.482601
0.468017
0.4659
0.447176
0.425189
0.399669
0.373945
0.348517
0.32428
0.301448
0.280259
0.26056
0.24217
0.226254
0.455576
0.443901
0.445172
0.429434
0.40991
0.386444
0.362436
0.338452
0.315435
0.293639
0.273342
0.254392
0.236591
0.221307
0.426828
0.418208
0.423067
0.410501
0.393597
0.372317
0.350135
0.32769
0.305971
0.285281
0.265934
0.247785
0.230615
0.215995
0.396478
0.391037
0.399664
0.390442
0.376304
0.357333
0.337081
0.316262
0.295918
0.276397
0.258055
0.240757
0.224256
0.210327
0.364653
0.362494
0.37505
0.369328
0.358089
0.34154
0.323313
0.304202
0.285303
0.267011
0.249727
0.233326
0.217529
0.204317
0.331487
0.332689
0.349312
0.34723
0.339012
0.324988
0.308874
0.291547
0.274156
0.257148
0.240972
0.225511
0.210452
0.197975
0.297119
0.301738
0.322545
0.324226
0.319136
0.30773
0.293808
0.278332
0.262509
0.246836
0.231811
0.217331
0.203041
0.191314
0.261695
0.26976
0.294844
0.300393
0.298527
0.28982
0.278161
0.264597
0.250394
0.236102
0.222269
0.208809
0.195315
0.184345
0.225363
0.23688
0.26631
0.275813
0.277252
0.271314
0.261979
0.250382
0.237845
0.224975
0.212369
0.199966
0.187292
0.17708
0.188275
0.203227
0.237045
0.25057
0.25538
0.25227
0.24531
0.235726
0.224897
0.213484
0.202138
0.190825
0.178994
0.169531
0.150586
0.168932
0.207155
0.224749
0.232981
0.232747
0.228205
0.220671
0.211585
0.201658
0.191601
0.181411
0.170442
0.161707
0.112454
0.134128
0.176746
0.198436
0.210127
0.212805
0.210713
0.20526
0.197944
0.189528
0.180782
0.171747
0.161662
0.153618
0.0740365
0.0989528
0.145927
0.17172
0.186892
0.192503
0.192885
0.189535
0.184012
0.177125
0.169706
0.161861
0.152686
0.14527
0.0354938
0.063541
0.114807
0.144689
0.163347
0.171903
0.174771
0.173539
0.169825
0.164482
0.158398
0.151776
0.143556
0.136671
-0.00301399
0.0280293
0.0834972
0.117431
0.139567
0.151066
0.156424
0.157316
0.15542
0.151629
0.146881
0.141511
0.134325
0.127838
-0.0413275
-0.00744637
0.0521078
0.0900342
0.115624
0.130053
0.137894
0.140909
0.140833
0.138601
0.135179
0.131077
0.125075
0.118843
-0.0792893
-0.0427505
0.0207492
0.0625873
0.0915909
0.108924
0.119233
0.12436
0.126101
0.125431
0.123319
0.120466
0.115881
0.109754
-0.116744
-0.0777496
-0.0104689
0.0351765
0.06754
0.0877397
0.100491
0.107712
0.111259
0.11215
0.111336
0.109656
0.106745
0.100998
-0.153542
-0.112313
-0.0414379
0.00788675
0.0435419
0.0665592
0.0817167
0.0910068
0.0963408
0.0987881
0.0992723
0.0986779
0.0972986
0.0934947
-0.189535
-0.146316
-0.0720514
-0.0191991
0.0196662
0.0454404
0.0629603
0.0742868
0.0813821
0.0853719
0.087166
0.0876236
0.0875407
0.0858224
-0.224586
-0.179641
-0.102206
-0.046001
-0.00401921
0.02444
0.0442691
0.0575921
0.0664172
0.071927
0.0750361
0.0765522
0.077561
0.0774559
-0.258528
-0.212197
-0.131803
-0.0724419
-0.0274481
0.00361311
0.0256896
0.0409622
0.0514802
0.0584796
0.0628943
0.0654828
0.0674784
0.0686229
-0.291195
-0.243861
-0.160753
-0.0984477
-0.0505562
-0.016987
0.00726667
0.024435
0.0366039
0.0450573
0.0507556
0.0544204
0.0573638
0.0596028
-0.322552
-0.274396
-0.188997
-0.123946
-0.0732812
-0.0373091
-0.0109562
0.00804731
0.0218196
0.0316875
0.0386401
0.0433733
0.047242
0.0505006
-0.352501
-0.30363
-0.216536
-0.148861
-0.0955634
-0.0573041
-0.0289373
-0.00816584
0.00715757
0.0183969
0.0265704
0.0323553
0.0371229
0.0413393
-0.380935
-0.331192
-0.243539
-0.173106
-0.117347
-0.0769252
-0.0466368
-0.0241708
-0.00735365
0.00521057
0.0145684
0.0213828
0.0270187
0.0321377
-0.407777
-0.357408
-0.269514
-0.196581
-0.138581
-0.0961276
-0.0640167
-0.0399358
-0.0216868
-0.00784781
0.00265476
0.0104729
0.0169462
0.0229206
-0.432955
-0.382329
-0.294248
-0.219218
-0.159215
-0.114868
-0.0810414
-0.0554307
-0.0358161
-0.0207558
-0.00915116
-0.00035757
0.00692392
0.0137122
-0.456397
-0.405802
-0.317745
-0.240985
-0.179199
-0.133107
-0.0976776
-0.0706277
-0.0497175
-0.0334925
-0.020831
-0.0110926
-0.00303137
0.00453264
-0.478044
-0.427693
-0.340013
-0.261851
-0.198491
-0.150809
-0.113894
-0.085501
-0.0633684
-0.0460381
-0.0323676
-0.0217176
-0.012905
-0.00460149
-0.497856
-0.447923
-0.36102
-0.281776
-0.217055
-0.167941
-0.129663
-0.100027
-0.0767482
-0.0583747
-0.043745
-0.0322188
-0.0226839
-0.013676
-0.515805
-0.466441
-0.380717
-0.300716
-0.234866
-0.184467
-0.144959
-0.114186
-0.0898377
-0.0704858
-0.0549486
-0.0425835
-0.0323563
-0.0226783
-0.531877
-0.483207
-0.39906
-0.318631
-0.251924
-0.200339
-0.159758
-0.127959
-0.102619
-0.0823572
-0.0659651
-0.0528001
-0.0419117
-0.0315968
-0.54607
-0.498192
-0.416014
-0.335485
-0.268157
-0.215583
-0.174041
-0.141328
-0.115077
-0.0939762
-0.0767827
-0.0628581
-0.0513411
-0.0404213
-0.558393
-0.511377
-0.431551
-0.351251
-0.28353
-0.230205
-0.187793
-0.154274
-0.127196
-0.105333
-0.0873908
-0.0727477
-0.0606371
-0.0491426
-0.568867
-0.522757
-0.445649
-0.365911
-0.298034
-0.244149
-0.201088
-0.166735
-0.138963
-0.116417
-0.0977801
-0.0824601
-0.0697942
-0.0577521
-0.577526
-0.53234
-0.458295
-0.37945
-0.311664
-0.257392
-0.213812
-0.178814
-0.150362
-0.127217
-0.107943
-0.0919877
-0.0788075
-0.0662431
-0.584412
-0.54015
-0.469481
-0.391858
-0.324415
-0.269932
-0.225954
-0.190461
-0.161473
-0.137684
-0.117874
-0.101326
-0.0876698
-0.0746121
-0.58958
-0.546224
-0.479209
-0.403128
-0.336283
-0.281772
-0.237527
-0.201647
-0.17221
-0.147892
-0.127572
-0.110477
-0.0963642
-0.0828648
-0.593093
-0.550616
-0.487491
-0.413259
-0.347265
-0.292916
-0.24854
-0.212372
-0.182565
-0.157818
-0.137045
-0.119464
-0.104853
-0.0910226
-0.595024
-0.553393
-0.494344
-0.422258
-0.357367
-0.303364
-0.258996
-0.222644
-0.192548
-0.167446
-0.14628
-0.12826
-0.113145
-0.0991149
-0.595454
-0.554641
-0.499796
-0.430135
-0.366594
-0.313122
-0.268898
-0.23247
-0.202169
-0.176776
-0.155272
-0.136861
-0.121306
-0.107046
-0.594471
-0.554458
-0.503883
-0.436907
-0.374958
-0.322199
-0.278253
-0.241855
-0.211433
-0.185815
-0.164026
-0.14527
-0.129333
-0.114785
-0.592175
-0.55296
-0.506649
-0.442596
-0.382475
-0.330606
-0.287071
-0.250805
-0.220346
-0.194569
-0.172547
-0.153493
-0.13721
-0.122365
-0.588667
-0.550273
-0.508144
-0.447231
-0.389161
-0.338359
-0.295363
-0.259331
-0.228915
-0.203045
-0.180842
-0.161531
-0.144932
-0.129818
-0.58406
-0.546538
-0.508428
-0.450846
-0.39504
-0.345473
-0.303145
-0.267444
-0.23715
-0.211251
-0.188918
-0.169391
-0.152504
-0.137159
-0.57847
-0.541899
-0.507568
-0.453483
-0.400134
-0.351966
-0.310431
-0.275159
-0.245063
-0.219197
-0.196783
-0.177081
-0.159934
-0.14439
-0.572017
-0.536501
-0.505648
-0.455189
-0.404472
-0.35786
-0.317241
-0.282491
-0.252667
-0.226893
-0.204447
-0.184611
-0.167228
-0.151511
-0.564827
-0.530488
-0.50276
-0.456019
-0.408081
-0.363175
-0.323592
-0.289456
-0.259977
-0.234354
-0.211922
-0.19199
-0.174396
-0.158527
-0.557027
-0.523996
-0.499012
-0.456031
-0.410992
-0.367935
-0.329505
-0.296073
-0.267009
-0.241594
-0.219219
-0.199231
-0.181446
-0.165444
-0.548746
-0.51715
-0.494521
-0.455288
-0.41324
-0.372164
-0.335001
-0.302361
-0.273781
-0.248629
-0.226355
-0.206345
-0.188391
-0.172271
-0.54011
-0.510063
-0.489418
-0.453857
-0.414859
-0.375884
-0.3401
-0.30834
-0.280311
-0.255476
-0.233343
-0.213347
-0.195243
-0.179019
-0.531243
-0.502834
-0.483841
-0.451807
-0.415884
-0.379121
-0.344823
-0.31403
-0.28662
-0.262154
-0.240201
-0.220253
-0.202016
-0.185699
-0.522262
-0.495547
-0.477933
-0.44921
-0.416355
-0.381898
-0.34919
-0.319451
-0.292727
-0.268684
-0.246947
-0.227079
-0.208726
-0.192324
-0.513275
-0.488276
-0.47183
-0.44614
-0.41631
-0.384237
-0.353221
-0.324623
-0.298654
-0.275085
-0.253603
-0.233843
-0.215389
-0.19891
-0.504379
-0.481081
-0.465662
-0.442675
-0.415792
-0.386162
-0.356932
-0.329565
-0.304422
-0.281381
-0.260188
-0.240567
-0.222025
-0.205471
-0.495655
-0.474017
-0.459536
-0.438895
-0.414844
-0.387692
-0.36034
-0.334296
-0.310051
-0.287595
-0.266727
-0.247272
-0.228652
-0.212026
-0.487171
-0.467132
-0.45354
-0.434887
-0.41351
-0.388847
-0.363458
-0.338832
-0.315564
-0.29375
-0.273244
-0.253981
-0.235294
-0.218593
-0.47898
-0.460467
-0.447734
-0.43074
-0.411838
-0.389649
-0.366297
-0.343189
-0.320979
-0.299872
-0.279765
-0.26072
-0.241972
-0.225194
-0.471121
-0.454059
-0.442155
-0.426541
-0.409876
-0.390115
-0.368869
-0.347377
-0.326317
-0.305984
-0.286317
-0.267516
-0.248714
-0.231852
-0.463622
-0.447942
-0.436819
-0.422375
-0.407676
-0.390267
-0.37118
-0.351408
-0.331594
-0.312112
-0.292929
-0.274399
-0.255547
-0.238592
-0.456505
-0.44214
-0.431735
-0.41831
-0.405293
-0.39013
-0.373237
-0.355288
-0.336827
-0.318281
-0.299632
-0.2814
-0.2625
-0.24544
-0.449783
-0.43667
-0.426903
-0.414399
-0.402788
-0.389731
-0.375047
-0.359021
-0.342027
-0.324513
-0.306456
-0.288554
-0.269607
-0.252428
-0.443468
-0.431542
-0.422326
-0.410672
-0.400226
-0.389103
-0.376618
-0.36261
-0.347204
-0.330832
-0.313433
-0.295897
-0.276903
-0.259586
-0.437572
-0.426761
-0.418011
-0.407142
-0.397672
-0.388287
-0.377961
-0.366054
-0.352364
-0.337256
-0.320594
-0.303468
-0.284426
-0.26695
-0.432103
-0.422325
-0.413969
-0.403813
-0.395187
-0.387334
-0.379092
-0.369351
-0.357508
-0.343802
-0.32797
-0.311305
-0.292216
-0.274559
-0.42707
-0.418232
-0.410213
-0.400691
-0.392821
-0.386303
-0.380036
-0.372503
-0.362634
-0.350479
-0.335587
-0.319452
-0.30032
-0.282451
-0.422482
-0.41448
-0.406759
-0.397789
-0.390614
-0.385261
-0.380829
-0.375509
-0.367734
-0.357292
-0.34347
-0.327948
-0.308782
-0.290672
-0.418344
-0.411067
-0.40362
-0.395128
-0.3886
-0.384278
-0.381522
-0.37838
-0.372798
-0.364236
-0.351637
-0.336833
-0.317657
-0.299259
-0.414658
-0.407989
-0.400809
-0.392741
-0.386811
-0.383425
-0.382178
-0.381133
-0.377815
-0.371296
-0.360097
-0.346137
-0.327001
-0.308272
-0.411417
-0.405244
-0.398334
-0.390661
-0.385286
-0.382764
-0.382871
-0.383798
-0.382777
-0.378445
-0.368849
-0.355885
-0.336895
-0.317702
-0.408603
-0.402824
-0.3962
-0.388921
-0.384072
-0.382355
-0.383682
-0.386421
-0.387679
-0.385645
-0.377885
-0.366066
-0.347451
-0.327689
-0.406188
-0.40072
-0.394403
-0.387544
-0.383215
-0.382254
-0.38469
-0.389064
-0.39253
-0.392846
-0.387173
-0.376667
-0.358815
-0.338029
-0.40414
-0.398904
-0.392934
-0.386541
-0.382759
-0.382518
-0.385966
-0.3918
-0.397351
-0.399995
-0.396679
-0.387544
-0.371467
-0.349228
-0.402418
-0.397345
-0.391771
-0.385911
-0.382728
-0.383198
-0.387576
-0.394705
-0.402179
-0.407048
-0.406341
-0.398649
-0.385081
-0.361178
-0.400968
-0.396004
-0.390884
-0.385636
-0.38313
-0.384331
-0.389577
-0.397852
-0.407062
-0.413986
-0.416045
-0.409893
-0.398755
-0.373986
-0.399724
-0.39484
-0.390232
-0.385685
-0.383949
-0.385931
-0.392014
-0.401305
-0.41205
-0.420819
-0.425653
-0.421169
-0.412244
-0.387432
-0.398615
-0.393809
-0.389771
-0.386016
-0.385151
-0.387984
-0.394906
-0.405112
-0.417195
-0.427582
-0.435056
-0.432355
-0.425619
-0.401301
-0.39757
-0.392863
-0.389449
-0.386575
-0.38668
-0.390452
-0.398243
-0.4093
-0.422539
-0.43432
-0.444198
-0.443314
-0.438904
-0.415428
-0.396516
-0.391956
-0.389213
-0.387299
-0.388466
-0.393262
-0.401978
-0.413864
-0.428116
-0.441076
-0.453069
-0.453909
-0.452018
-0.42962
-0.395384
-0.391041
-0.389008
-0.388121
-0.390424
-0.396324
-0.40603
-0.418756
-0.433929
-0.447874
-0.461687
-0.464023
-0.464832
-0.443611
-0.394111
-0.390077
-0.388779
-0.388967
-0.392458
-0.399526
-0.410283
-0.423888
-0.439943
-0.454716
-0.47008
-0.473578
-0.477227
-0.457079
-0.392641
-0.389021
-0.388472
-0.389763
-0.394466
-0.402742
-0.4146
-0.429139
-0.446068
-0.461565
-0.478253
-0.482543
-0.489085
-0.46969
-0.390928
-0.387839
-0.388035
-0.390433
-0.396344
-0.405838
-0.418826
-0.434345
-0.452169
-0.468339
-0.486173
-0.490923
-0.500269
-0.481165
-0.388936
-0.386497
-0.387421
-0.390905
-0.397988
-0.408681
-0.4228
-0.439334
-0.458079
-0.474896
-0.493742
-0.498732
-0.510597
-0.491327
-0.386642
-0.384969
-0.386588
-0.391114
-0.399306
-0.411148
-0.426366
-0.443924
-0.463588
-0.481051
-0.500806
-0.505959
-0.519858
-0.500115
-0.384036
-0.383238
-0.385503
-0.391008
-0.40022
-0.413131
-0.429385
-0.447943
-0.468513
-0.487024
-0.507168
-0.512526
-0.527842
-0.507523
-0.381125
-0.381294
-0.384145
-0.390548
-0.400673
-0.414548
-0.431745
-0.451238
-0.472626
-0.491821
-0.512567
-0.518281
-0.534366
-0.51352
-0.377929
-0.379142
-0.382504
-0.389716
-0.400633
-0.415349
-0.433365
-0.453695
-0.475787
-0.495668
-0.516815
-0.523015
-0.539266
-0.518007
-0.374485
-0.376796
-0.380602
-0.388511
-0.400095
-0.415514
-0.434205
-0.455245
-0.477905
-0.498382
-0.519739
-0.526496
-0.542386
-0.520825
-0.370852
-0.37428
-0.37846
-0.386961
-0.399084
-0.415065
-0.434293
-0.45586
-0.478929
-0.499844
-0.521274
-0.528484
-0.543606
-0.521816
-0.367096
-0.371644
-0.376121
-0.385115
-0.397652
-0.414052
-0.43366
-0.455591
-0.47883
-0.50013
-0.521335
-0.528783
-0.542906
-0.520866
-0.3633
-0.368943
-0.373649
-0.383039
-0.395876
-0.412563
-0.432397
-0.454518
-0.477754