/*--------------------------------*- C++ -*----------------------------------*\
  =========                 |
  \\      /  F ield         | OpenFOAM: The Open Source CFD Toolbox
   \\    /   O peration     | Website:  https://openfoam.org
    \\  /    A nd           | Version:  7
     \\/     M anipulation  |
\*---------------------------------------------------------------------------*/
FoamFile
{
    version     2.0;
    format      ascii;
    class       surfaceScalarField;
    location    "5";
    object      phi;
}
// * * * * * * * * * * * * * * * * * * * * * * * * * * * * * * * * * * * * * //

dimensions      [0 3 -1 0 0 0 0];

internalField   nonuniform List<scalar> 
32949
(
-4.93068e-05
4.93172e-05
-1.04473e-08
-0.000147568
9.82776e-05
-1.65125e-08
-0.000278021
0.00013047
-1.77523e-08
-0.000431936
0.000153933
-1.73757e-08
-0.000606877
0.000174956
-1.61582e-08
-0.000801783
0.00019492
-1.33197e-08
-0.00101507
0.000213298
-7.73007e-09
-0.00124335
0.000228279
1.73372e-09
-0.00148101
0.000237635
1.59382e-08
-0.00171977
0.000238727
3.53322e-08
-0.00194876
0.000228931
5.96299e-08
-0.00215315
0.000204303
8.76235e-08
-0.00232102
0.000167752
1.16939e-07
9.70945e-05
1.44064e-07
-0.00241826
-4.82166e-05
9.75339e-05
-0.000144691
0.000194752
-0.000272926
0.000258706
-0.000424132
0.000305139
-0.000595644
0.000346469
-0.000786157
0.000385433
-0.000993839
0.00042098
-0.00121504
0.000449481
-0.00144388
0.000466475
-0.00167178
0.000466631
-0.00188772
0.000444864
-0.00207594
0.000392521
-0.00222597
0.00031779
0.000171682
-0.00230056
-4.60743e-05
0.000143608
-0.000139021
0.000287699
-0.000262874
0.000382559
-0.000408729
0.000450994
-0.000573483
0.000511223
-0.000755352
0.000567302
-0.000952027
0.000617655
-0.00115938
0.000656834
-0.00137105
0.000678148
-0.00157792
0.000673494
-0.00176882
0.000635763
-0.00192629
0.000549993
-0.00204285
0.000434355
0.000204331
-0.0020755
-4.29539e-05
0.000186562
-0.000130728
0.000375472
-0.000248135
0.000499967
-0.000386128
0.000588987
-0.000540987
0.000666082
-0.000710242
0.000736557
-0.000890917
0.00079833
-0.00107823
0.00084415
-0.00126524
0.000865156
-0.00144211
0.000850363
-0.00159789
0.000791543
-0.00171281
0.000664911
-0.00178389
0.000505434
0.000181409
-0.00176097
-3.89634e-05
0.000225525
-0.000120054
0.000456563
-0.000229103
0.000609016
-0.000356918
0.000716802
-0.000499017
0.000808181
-0.000652087
0.000889627
-0.000812339
0.000958583
-0.000974241
0.00100605
-0.00113023
0.00102115
-0.00126974
0.000989874
-0.00138259
0.000904386
-0.0014465
0.000728821
-0.00146402
0.00052296
9.57588e-05
-0.00137837
-3.42398e-05
0.000259765
-0.000107314
0.000529637
-0.000206286
0.000707987
-0.000321851
0.000832367
-0.000448674
0.000935004
-0.000582482
0.00102344
-0.000718593
0.00109469
-0.000850678
0.00113814
-0.000970649
0.00114112
-0.00106723
0.00108646
-0.00113161
0.000968766
-0.00113951
0.000736714
-0.00109864
0.00048209
-5.36436e-05
-0.000949235
-2.89446e-05
0.00028871
-9.28849e-05
0.000593578
-0.000180294
0.000795396
-0.000281827
0.000933899
-0.000391258
0.00104444
-0.000503299
0.00113548
-0.000612346
0.00120374
-0.000711302
0.00123709
-0.00079171
0.00122153
-0.000841727
0.00113648
-0.000854244
0.000981282
-0.000804421
0.000686892
-0.000702453
0.000380122
-0.000263178
-0.000492918
-2.32568e-05
0.000311967
-7.71888e-05
0.00064751
-0.00015182
0.000870027
-0.000237865
0.00101994
-0.000328231
0.0011348
-0.000416615
0.00122386
-0.000496524
0.00128365
-0.000560189
0.00130076
-0.000598991
0.00126033
-0.000600811
0.0011383
-0.000559964
0.000940435
-0.000454192
0.000581119
-0.000288346
0.000214277
-0.000521412
-3.01124e-05
-1.73663e-05
0.000329333
-6.06853e-05
0.000690828
-0.000121622
0.000930964
-0.000191078
0.0010894
-0.00026117
0.00120489
-0.000324646
0.00128734
-0.000374209
0.00133321
-0.000401576
0.00132812
-0.000398203
0.00125695
-0.000352252
0.00109234
-0.00025786
0.000846043
-0.000103796
0.000427055
0.000125501
-1.50209e-05
-0.000836604
0.000440694
-1.14662e-05
0.000340799
-4.38543e-05
0.000723217
-9.05024e-05
0.000977612
-0.00014264
0.00114154
-0.00019173
0.00125398
-0.000229681
0.00132529
-0.000248534
0.00135207
-0.000239705
0.0013193
-0.000194922
0.00121217
-0.000104154
0.00100158
4.451e-05
0.000697379
0.000247248
0.000224317
0.000517427
-0.0002852
-0.00121065
0.000891474
-5.74524e-06
0.000346544
-2.71799e-05
0.000744651
-5.9285e-05
0.00100972
-9.37619e-05
0.00117601
-0.000121594
0.00128182
-0.000134021
0.00133772
-0.000122587
0.00134063
-7.87439e-05
0.00127545
6.16334e-06
0.00112726
0.000138692
0.000869048
0.000330314
0.000505758
0.00058262
-2.79887e-05
0.000892797
-0.000595378
-0.00163612
0.00131826
-3.92724e-07
0.000346937
-1.11311e-05
0.00075539
-2.87914e-05
0.00102738
-4.56569e-05
0.00119288
-5.24409e-05
0.0012886
-3.99301e-05
0.0013252
5.27717e-07
0.00130017
7.76117e-05
0.00119837
0.000198802
0.00100607
0.000370144
0.000697706
0.000601414
0.000274488
0.000893824
-0.000320398
0.00124367
-0.00094522
-0.00210991
0.00171746
4.479e-06
0.000342458
3.84101e-06
0.000756028
1.50485e-07
0.00103107
4.77919e-07
0.00119255
1.41004e-05
0.00127498
5.04847e-05
0.00128882
0.000118466
0.00123219
0.000225977
0.00109086
0.000380257
0.000851794
0.00058477
0.000493193
0.000851237
8.02088e-06
0.00117849
-0.000647647
0.00156934
-0.00133608
-0.00263006
0.00208949
8.68571e-06
0.000333772
1.73257e-05
0.000747388
2.69077e-05
0.00102149
4.3577e-05
0.00117588
7.6533e-05
0.00124202
0.000135216
0.00123014
0.000228324
0.00113908
0.000363202
0.00095598
0.000546807
0.000668189
0.000780132
0.000259869
0.00107784
-0.000289683
0.00143744
-0.00100725
0.00187363
-0.00177228
-0.00319398
0.00243756
1.21478e-05
0.000321625
2.9027e-05
0.000730508
5.07266e-05
0.000999787
8.25889e-05
0.00114402
0.000133447
0.00119116
0.000212503
0.00115108
0.000328169
0.00102342
0.000487095
0.000797054
0.000696296
0.000458988
0.000955507
6.57389e-07
0.00128228
-0.000616454
0.00167544
-0.00140041
0.00216285
-0.00225969
-0.00379626
0.00276513
1.47945e-05
0.00030683
3.86673e-05
0.000706636
7.11111e-05
0.000967343
0.000116685
0.00109845
0.000183701
0.00112415
0.000280945
0.00105384
0.000416465
0.000887897
0.000596343
0.000617176
0.000827988
0.000227344
0.00111228
-0.000283635
0.00146893
-0.000973101
0.00190032
-0.0018318
0.00244316
-0.00280253
-0.0044266
0.0030735
1.65916e-05
0.000290238
4.60801e-05
0.000677147
8.76752e-05
0.000925748
0.000145232
0.00104089
0.000226446
0.00104293
0.000339594
0.000940689
0.000492413
0.000735078
0.000690851
0.000418738
0.000943368
-2.51729e-05
0.00125411
-0.00059438
0.00164473
-0.00136371
0.0021207
-0.00230778
0.00271753
-0.00339936
-0.0050694
0.00336033
1.75406e-05
0.000272698
5.11977e-05
0.00064349
0.000100209
0.000876736
0.000167866
0.000973233
0.000261233
0.000949567
0.000388114
0.000813808
0.000556184
0.000567008
0.000772018
0.000202904
0.00104592
-0.000299071
0.00138734
-0.000935802
0.00181793
-0.00179431
0.00234296
-0.00283281
0.00298374
-0.00404013
-0.00570556
0.0036199
1.76779e-05
0.00025502
5.40571e-05
0.000607111
0.000108704
0.00082209
0.000184543
0.000897394
0.000288111
0.000845999
0.000426943
0.000674976
0.000609139
0.000384812
0.000842964
-3.09209e-05
0.00114132
-0.000597422
0.00151967
-0.00131416
0.00199582
-0.00227045
0.00256849
-0.00340548
0.00323432
-0.00470597
-0.00631598
0.00384474
1.70731e-05
0.000237947
5.48026e-05
0.000569381
0.000113367
0.000763525
0.000195591
0.00081517
0.000307714
0.000733876
0.000457424
0.000525266
0.000653965
0.000188271
0.000908446
-0.000285402
0.00123672
-0.000925694
0.00165856
-0.001736
0.00218204
-0.00279393
0.00279257
-0.00401601
0.00345892
-0.00537232
-0.00688506
0.00402801
1.58262e-05
0.000222121
5.36833e-05
0.000531524
0.000114632
0.000702576
0.000201732
0.000728071
0.000321317
0.00061429
0.000481861
0.000364722
0.00069463
-2.44975e-05
0.000974421
-0.000565193
0.00133933
-0.00129061
0.00180887
-0.00220554
0.00237483
-0.00335989
0.00300568
-0.00464686
0.00364765
-0.00601429
-0.00740295
0.00416553
1.40642e-05
0.000208057
5.10454e-05
0.000494543
0.000113151
0.00064047
0.000204086
0.000637136
0.000330832
0.000487544
0.000503441
0.000192114
0.00073603
-0.000257087
0.00104714
-0.000876299
0.00145465
-0.00169812
0.00197102
-0.0027219
0.00256707
-0.00395595
0.00319648
-0.00527627
0.00379379
-0.0066116
-0.00786591
0.00425675
1.19366e-05
0.00019612
4.73198e-05
0.00045916
0.000109772
0.000578019
0.00020413
0.000542777
0.000338707
0.000352967
0.000525978
4.84332e-06
0.000783361
-0.00051447
0.00113184
-0.00122477
0.00158474
-0.00215102
0.00214037
-0.00327754
0.00274848
-0.00456406
0.00335523
-0.00588302
0.00389496
-0.00715133
-0.0082754
0.00430445
9.60926e-06
0.000186511
4.30007e-05
0.000425768
0.000105493
0.000515526
0.000203607
0.000444663
0.000347738
0.000208836
0.000553486
-0.000200904
0.000841248
-0.000802232
0.00123146
-0.00161499
0.00172737
-0.00264693
0.00230839
-0.00385855
0.00290861
-0.00516428
0.00347591
-0.00645032
0.00395265
-0.00762807
-0.0086365
0.00431376
7.25698e-06
0.000179254
3.86196e-05
0.000394406
0.000101403
0.000452743
0.000204397
0.000341669
0.000360797
5.24357e-05
0.000589619
-0.000429727
0.000912822
-0.00112544
0.00134572
-0.00204789
0.00187642
-0.00317763
0.00246508
-0.00444722
0.00303952
-0.00573871
0.00355677
-0.00696757
0.00397111
-0.0080424
-0.00895629
0.00429089
5.05461e-06
0.000174199
3.47122e-05
0.000364748
9.85994e-05
0.000388856
0.000208346
0.000231922
0.000380499
-0.000119717
0.000637121
-0.000686349
0.000998991
-0.00148731
0.00147097
-0.00251986
0.00202337
-0.00373003
0.00260154
-0.00502539
0.00313704
-0.00627421
0.00359945
-0.00742998
0.00395604
-0.00839899
-0.00924214
0.00424188
3.16742e-06
0.000171032
3.17825e-05
0.000336133
9.81049e-05
0.000322534
0.000217099
0.000112928
0.000408893
-0.000311512
0.000697343
-0.000974799
0.00109813
-0.0018881
0.00160099
-0.00302272
0.00215948
-0.00428852
0.00271167
-0.00557758
0.00320065
-0.00676319
0.00360782
-0.00783715
0.00391327
-0.00870444
-0.00950116
0.00417229
1.74082e-06
0.000169291
3.0268e-05
0.000307606
0.000100784
0.000252017
0.00023194
-1.82276e-05
0.000447213
-0.000526785
0.000769987
-0.00129757
0.00120634
-0.00232445
0.00172839
-0.00354476
0.00227751
-0.00483765
0.00279265
-0.00609272
0.00323248
-0.00720302
0.00358718
-0.00819186
0.00384721
-0.00896447
-0.00974502
0.00409108
8.85103e-07
0.000168406
3.05101e-05
0.000277981
0.000107285
0.000175243
0.000253691
-0.000164634
0.00049573
-0.000768824
0.000853111
-0.00165495
0.00131819
-0.00278953
0.00184609
-0.00407266
0.00237276
-0.00536432
0.00284447
-0.00656442
0.00323586
-0.00759441
0.00354408
-0.00850008
0.00377763
-0.00919803
-0.00994331
0.00397593
6.47166e-07
0.000167759
3.27352e-05
0.000245893
0.000117999
8.99795e-05
0.000282657
-0.000329292
0.000553727
-0.00103989
0.000943426
-0.00204465
0.00142774
-0.00327385
0.00194853
-0.00459346
0.00244313
-0.00585891
0.00286905
-0.00699034
0.00321471
-0.00794007
0.00348269
-0.00876805
0.00369911
-0.00941445
-0.010117
0.00387283
1.03088e-06
0.000166728
3.70518e-05
0.000209872
0.000133064
-6.03251e-06
0.000318641
-0.000514869
0.000619597
-0.00134085
0.0010368
-0.00246185
0.00152951
-0.00376656
0.00203208
-0.00509603
0.00248867
-0.0063155
0.00286935
-0.00737102
0.00317336
-0.00824409
0.00340936
-0.00900405
0.0036039
-0.00960899
-0.0102769
0.00376378
2.05823e-06
0.000164669
4.34599e-05
0.00016847
0.000152387
-0.00011496
0.000360992
-0.000723474
0.000691024
-0.00167088
0.00112885
-0.00289968
0.00161918
-0.00425688
0.00209507
-0.00557192
0.00251089
-0.00673132
0.00284877
-0.00770889
0.00311616
-0.00851149
0.00332521
-0.00921309
0.00350323
-0.00978701
-0.0104268
0.00365308
3.71596e-06
0.000160953
5.1869e-05
0.000120317
0.000175689
-0.00023878
0.000408678
-0.000956464
0.00076525
-0.00202745
0.00121554
-0.00334998
0.00169384
-0.00473518
0.00213741
-0.00601549
0.00251216
-0.00710607
0.0028108
-0.00800754
0.00304647
-0.00874716
0.00323359
-0.00940021
0.00339718
-0.00995061
-0.0105676
0.00353802
5.95003e-06
0.000155003
6.21237e-05
6.41435e-05
0.000202549
-0.000379206
0.000460371
-0.00121429
0.000839361
-0.00240644
0.00129353
-0.00380415
0.001752
-0.00519365
0.00216009
-0.00642358
0.0024952
-0.00744117
0.00275868
-0.00827102
0.00296729
-0.00895578
0.0031362
-0.00956912
0.00328781
-0.0101022
-0.0107013
0.00342149
8.69072e-06
0.000146313
7.40326e-05
-1.19837e-06
0.00023245
-0.000537623
0.000514532
-0.00149637
0.000910563
-0.00280247
0.00136042
-0.00425401
0.00179331
-0.00562654
0.0021648
-0.00679507
0.00246278
-0.00773914
0.00269526
-0.0085035
0.00288093
-0.00914145
0.00303472
-0.00972291
0.00317603
-0.0102435
-0.0108284
0.0033031
1.18667e-05
0.000134446
8.73937e-05
-7.67254e-05
0.000264798
-0.000715028
0.000569514
-0.00180108
0.000976403
-0.00320936
0.00141474
-0.00469234
0.00181826
-0.00603006
0.00215356
-0.00713037
0.00241753
-0.00800311
0.002623
-0.00870897
0.00278926
-0.00930771
0.00293028
-0.00986393
0.00306254
-0.0103758
-0.0109494
0.00318355
1.5413e-05
0.000119033
0.000102011
-0.000163323
0.000298941
-0.000911958
0.00062365
-0.00212579
0.00103492
-0.00362063
0.00145585
-0.00511328
0.00182793
-0.00640214
0.0021285
-0.00743094
0.00236183
-0.00823644
0.00254392
-0.00889107
0.00269369
-0.00945747
0.00282373
-0.00999396
0.0029478
-0.0104999
-0.0110645
0.00306291
1.92759e-05
9.97572e-05
0.000117699
-0.000261747
0.00033417
-0.00112843
0.00067535
-0.00246697
0.0010847
-0.00402997
0.00148378
-0.00551236
0.00182371
-0.00674207
0.0020917
-0.00769893
0.00229775
-0.0084425
0.00245967
-0.00905299
0.00259531
-0.00959311
0.00271567
-0.0101143
0.00283212
-0.0106163
-0.0111737
0.00294138
2.34148e-05
7.63424e-05
0.000134285
-0.000372616
0.000369731
-0.00136388
0.000723185
-0.00282043
0.00112489
-0.00443168
0.00149905
-0.00588652
0.00180718
-0.0070502
0.00204509
-0.00793684
0.00222705
-0.00862446
0.00237155
-0.00919749
0.00249492
-0.00971649
0.00260655
-0.0102259
0.00271571
-0.0107255
-0.0112771
0.00281904
2.78019e-05
4.85405e-05
0.000151586
-0.000496401
0.000404839
-0.00161713
0.000765957
-0.00318154
0.00115512
-0.00482084
0.00150249
-0.0062339
0.00177991
-0.00732762
0.00199043
-0.00814736
0.00215121
-0.00878524
0.00228057
-0.00932685
0.00239311
-0.00982903
0.00249665
-0.0103295
0.00259871
-0.0108275
-0.0113744
0.00269599
3.24196e-05
1.61209e-05
0.000169405
-0.000633387
0.000438708
-0.00188643
0.000802745
-0.00354558
0.00117542
-0.00519352
0.00149514
-0.00655361
0.00174344
-0.00757591
0.00192923
-0.00833316
0.00207141
-0.00892742
0.00218752
-0.00944296
0.00229031
-0.00993182
0.00238619
-0.0104254
0.00248123
-0.0109226
-0.0114654
0.0025723
3.72571e-05
-2.11362e-05
0.000187513
-0.000783642
0.000470577
-0.00216949
0.000832923
-0.00390793
0.00118615
-0.00554674
0.00147813
-0.0068456
0.0016992
-0.00779698
0.00186281
-0.00849676
0.00198863
-0.00905324
0.00209299
-0.00954732
0.00218684
-0.0100257
0.00227532
-0.0105138
0.00236335
-0.0110106
-0.0115501
0.00244802
4.23064e-05
-6.34426e-05
0.000205644
-0.000946979
0.000499743
-0.00246359
0.000856154
-0.00426434
0.00118783
-0.00587842
0.00145262
-0.00711039
0.0016485
-0.00799286
0.00179228
-0.00864054
0.00190364
-0.00916461
0.00199744
-0.00964112
0.00208291
-0.0101111
0.00216415
-0.0105951
0.00224513
-0.0110916
-0.0116282
0.00232322
4.75568e-05
-0.000110999
0.000223505
-0.00112293
0.000525596
-0.00276568
0.000872351
-0.00461109
0.00118118
-0.00618724
0.00141972
-0.00734894
0.00159249
-0.00816563
0.00171856
-0.00876661
0.00181705
-0.00926309
0.0019012
-0.00972527
0.00197869
-0.0101886
0.00205277
-0.0106692
0.00212664
-0.0111655
-0.0116995
0.00219796
5.29898e-05
-0.000163989
0.000240786
-0.00131072
0.000547647
-0.00307255
0.000881637
-0.00494508
0.00116695
-0.00647256
0.00138051
-0.0075625
0.00153218
-0.0083173
0.00164241
-0.00887684
0.00172932
-0.00935
0.00180452
-0.00980047
0.00187431
-0.0102584
0.00194125
-0.0107361
0.00200793
-0.0112322
-0.0117639
0.0020723
5.85742e-05
-0.000222563
0.000257173
-0.00150932
0.000565542
-0.00338091
0.000884294
-0.00526384
0.00114596
-0.00673422
0.00133595
-0.00775249
0.00146843
-0.00844978
0.00156444
-0.00897286
0.00164082
-0.00942638
0.00170759
-0.00986724
0.00176987
-0.0103207
0.00182964
-0.0107959
0.00188906
-0.0112916
-0.0118211
0.00194632
6.42628e-05
-0.000286826
0.000272359
-0.00171742
0.000579072
-0.00368763
0.000880716
-0.00556548
0.00111899
-0.0069725
0.00128693
-0.00792042
0.00140198
-0.00856483
0.00148517
-0.00905605
0.00155185
-0.00949307
0.00161057
-0.00992595
0.00166544
-0.0103756
0.00171802
-0.0108484
0.00177008
-0.0113436
-0.0118711
0.00182008
6.99912e-05
-0.000356817
0.000286063
-0.00193349
0.00058816
-0.00398972
0.000871372
-0.00584869
0.00108683
-0.00718795
0.00123424
-0.00806784
0.00133346
-0.00866404
0.00140499
-0.00912758
0.00146262
-0.0095507
0.00151356
-0.00997689
0.00156109
-0.0104231
0.00160642
-0.0108938
0.00165105
-0.0113883
-0.0119137
0.00169365
7.56801e-05
-0.000432498
0.000298034
-0.00215584
0.000592848
-0.00428454
0.000856772
-0.00611262
0.00105019
-0.00738137
0.00117858
-0.00819622
0.00126338
-0.00874884
0.00132421
-0.00918841
0.00137331
-0.0095998
0.00141666
-0.0100202
0.00145687
-0.0104633
0.00149492
-0.0109318
0.00153204
-0.0114254
-0.0119488
0.0015671
8.12396e-05
-0.000513737
0.000308061
-0.00238267
0.000593274
-0.00456975
0.000837442
-0.00635678
0.00100976
-0.00755369
0.00112055
-0.00830701
0.00119218
-0.00882046
0.00124311
-0.00923934
0.00128405
-0.00964075
0.00131995
-0.0100561
0.00135284
-0.0104962
0.00138355
-0.0109625
0.0014131
-0.0114549
-0.0119762
0.00144052
8.65747e-05
-0.000600312
0.000315984
-0.00261208
0.000589647
-0.00484341
0.000813908
-0.00658105
0.000966147
-0.00770593
0.00106067
-0.00840153
0.0011202
-0.00888
0.00116187
-0.00928101
0.00119495
-0.00967383
0.00122348
-0.0100847
0.00124906
-0.0105218
0.00127238
-0.0109859
0.00129429
-0.0114768
-0.0119959
0.00131398
9.15903e-05
-0.000691902
0.000321693
-0.00284218
0.000582226
-0.00510395
0.00078668
-0.0067855
0.000919898
-0.00783915
0.000999385
-0.00848102
0.00104775
-0.00892837
0.00108068
-0.00931394
0.00110611
-0.00969926
0.00112732
-0.0101059
0.00114557
-0.01054
0.00116145
-0.0110017
0.00117568
-0.0114911
-0.0120077
0.00118755
9.61956e-05
-0.000788098
0.000325131
-0.00307111
0.000571303
-0.00535012
0.000756244
-0.00697044
0.00087151
-0.00795442
0.000937078
-0.00854659
0.000975061
-0.00896635
0.00099965
-0.00933853
0.00101759
-0.0097172
0.00103151
-0.0101198
0.00104243
-0.010551
0.00105083
-0.0110101
0.00105734
-0.0114976
-0.0120117
0.00106132
0.000100307
-0.000888405
0.00032629
-0.0032971
0.000557189
-0.00558102
0.000723055
-0.00713631
0.000821417
-0.00805278
0.000874069
-0.00859924
0.000902327
-0.00899461
0.0009189
-0.0093551
0.000929462
-0.00972776
0.000936123
-0.0101265
0.000939679
-0.0105545
0.000940572
-0.011011
0.000939307
-0.0114963
-0.0120078
0.000935366
0.00010385
-0.000992255
0.000325208
-0.00351845
0.000540197
-0.00579601
0.000687535
-0.00728364
0.000770001
-0.00813524
0.000810628
-0.00863986
0.00082971
-0.00901369
0.000838518
-0.00936391
0.000841785
-0.00973103
0.00084119
-0.0101259
0.000837373
-0.0105507
0.000830726
-0.0110044
0.000821662
-0.0114872
-0.0119959
0.000809757
0.000106761
-0.00109902
0.000321959
-0.00373365
0.000520641
-0.00599469
0.00065007
-0.00741307
0.000717594
-0.00820277
0.000746981
-0.00866925
0.000757341
-0.00902405
0.000758578
-0.00936515
0.000754609
-0.00972706
0.000746764
-0.010118
0.00073556
-0.0105395
0.00072135
-0.0109902
0.000704467
-0.0114704
-0.011976
0.000684576
0.000108986
-0.001208
0.000316648
-0.00394131
0.000498823
-0.00617687
0.000611009
-0.00752526
0.000664484
-0.00825624
0.000683318
-0.00868809
0.000685328
-0.00902606
0.000679143
-0.00935896
0.00066798
-0.0097159
0.000652887
-0.0101029
0.000634284
-0.0105209
0.00061249
-0.0109684
0.000587781
-0.0114457
-0.0119481
0.000559896
0.000110485
-0.00131849
0.000309401
-0.00414023
0.000475032
-0.0063425
0.00057067
-0.0076209
0.000610923
-0.0082965
0.000619801
-0.00869696
0.000613767
-0.00902003
0.000600276
-0.00934547
0.000581952
-0.00969757
0.000559614
-0.0100806
0.000533605
-0.0104949
0.000504209
-0.010939
0.000471685
-0.0114131
-0.0119122
0.00043579
0.00011123
-0.00142972
0.000300362
-0.00432936
0.000449543
-0.00649168
0.000529333
-0.00770069
0.000557124
-0.00832429
0.00055656
-0.0086964
0.000542732
-0.0090062
0.000522026
-0.00932477
0.000496566
-0.00967211
0.000466987
-0.010051
0.000433569
-0.0104615
0.000396556
-0.010902
0.000356213
-0.0113728
-0.0118683
0.00031229
0.000111205
-0.00154092
0.000289681
-0.00450784
0.000422611
-0.00662461
0.000487251
-0.00776533
0.00050327
-0.00834031
0.000493708
-0.00868684
0.000472288
-0.00898478
0.000444438
-0.00929692
0.000411863
-0.00963954
0.000375049
-0.0100142
0.000334228
-0.0104206
0.000289607
-0.0108573
0.000241399
-0.0113246
-0.0118163
0.000189402
0.000110411
-0.00165133
0.00027753
-0.00467496
0.000394473
-0.00674155
0.000444646
-0.0078155
0.000449519
-0.00834518
0.000431338
-0.00866866
0.000402492
-0.00895593
0.000367555
-0.00926198
0.000327884
-0.00959987
0.000283845
-0.00997015
0.000235622
-0.0103724
0.000183444
-0.0108052
0.000127357
-0.0112685
-0.0117558
6.69166e-05
0.00010886
-0.00176019
0.000264075
-0.00483017
0.000365351
-0.00684283
0.000401713
-0.00785186
0.000396006
-0.00833947
0.00036953
-0.00864218
0.000333395
-0.00891979
0.000291419
-0.00922
0.000244671
-0.00955312
0.000193422
-0.0099189
0.000137783
-0.0103168
7.80097e-05
-0.0107454
1.48227e-05
-0.0112053
-0.0116865
-5.45617e-05
0.000106574
-0.00186677
0.00024947
-0.00497307
0.000335445
-0.0069288
0.000358625
-0.00787504
0.000342844
-0.00832369
0.000308352
-0.00860769
0.000265036
-0.00887648
0.000216065
-0.00917103
0.000162269
-0.00949932
0.000103823
-0.00986046
4.07593e-05
-0.0102537
-2.67677e-05
-0.0106779
-9.81081e-05
-0.011134
-0.0116101
-0.000174514
0.000103589
-0.00197036
0.000233866
-0.00510334
0.000304937
-0.00699987
0.000315531
-0.00788564
0.000290131
-0.00829829
0.000247861
-0.00856542
0.000197458
-0.00882608
0.000141524
-0.0091151
8.07161e-05
-0.00943851
1.49606e-05
-0.0097947
-5.52866e-05
-0.0101835
-0.000130014
-0.0106031
-0.000209631
-0.0110543
-0.0115259
-0.000293764
9.99452e-05
-0.0020703
0.000217407
-0.00522081
0.000273993
-0.00705646
0.000272564
-0.00788421
0.00023795
-0.00826368
0.000188104
-0.00851557
0.000130701
-0.00876867
6.78172e-05
-0.00905221
-4.35199e-07
-0.00937026
-7.27536e-05
-0.00972238
-0.000150341
-0.0101059
-0.000232615
-0.0105209
-0.000320011
-0.010967
-0.0114339
-0.000412078
9.56918e-05
-0.00216599
0.000200229
-0.00532534
0.000242762
-0.00709899
0.00022984
-0.00787129
0.000186371
-0.00822021
0.000129116
-0.00845832
6.47933e-05
-0.00870435
-5.1908e-06
-0.00898223
-7.96746e-05
-0.00929578
-0.000159546
-0.00964251
-0.000244424
-0.010021
-0.000334235
-0.0104311
-0.000429308
-0.0108719
-0.0113339
-0.000529313
9.08814e-05
-0.00225687
0.000182459
-0.00541692
0.000211378
-0.00712791
0.000187458
-0.00784737
0.000135455
-0.00816821
7.09273e-05
-0.00839379
-7.51094e-07
-0.00863267
-7.67936e-05
-0.00890619
-0.000158413
-0.00921416
-0.000245346
-0.00955558
-0.000337475
-0.00992887
-0.000434774
-0.0103338
-0.000537496
-0.0107692
-0.0112259
-0.0006454
8.55698e-05
-0.00234244
0.000164218
-0.00549557
0.00017996
-0.00714365
0.000145503
-0.00781291
8.52461e-05
-0.00810795
1.35002e-05
-0.00832204
-6.42644e-05
-0.00855491
-0.000147621
-0.00882283
-0.000236159
-0.00912562
-0.000330101
-0.00946164
-0.000429434
-0.00982954
-0.000534169
-0.010229
-0.000644518
-0.0106588
-0.0111102
-0.000760264
7.98144e-05
-0.00242226
0.000145618
-0.00556137
0.000148617
-0.00714665
0.000104042
-0.00776834
3.57543e-05
-0.00803966
-4.2764e-05
-0.00824352
-0.000127369
-0.0084703
-0.000217465
-0.00873273
-0.00031286
-0.00903023
-0.000413764
-0.00936073
-0.000520248
-0.00972305
-0.000632365
-0.0101169
-0.00075031
-0.0105409
-0.0109867
-0.000873841
7.36727e-05
-0.00249593
0.000126765
-0.00561447
0.000117444
-0.00713733
6.31488e-05
-0.00771404
-1.30269e-05
-0.00796349
-9.82065e-05
-0.00815834
-0.000189511
-0.008379
-0.000286284
-0.00863596
-0.000388472
-0.00892804
-0.000496288
-0.00925292
-0.000609865
-0.00960948
-0.000729305
-0.00999746
-0.000854808
-0.0104154
-0.0108554
-0.000986061
6.72013e-05
-0.00256313
0.000107755
-0.00565502
8.65238e-05
-0.0071161
2.29025e-05
-0.00765042
-6.05499e-05
-0.00788003
-0.000152722
-0.00806617
-0.000250647
-0.00828107
-0.000354042
-0.00853257
-0.000462957
-0.00881912
-0.000577627
-0.00913825
-0.000698233
-0.00948887
-0.000824934
-0.00987076
-0.000957946
-0.0102823
-0.0107165
-0.00109686
6.04547e-05
-0.00262359
8.86864e-05
-0.00568325
5.59289e-05
-0.00708334
-1.66692e-05
-0.00757782
-0.000107409
-0.0077893
-0.000206275
-0.00796731
-0.000310747
-0.0081766
-0.000420703
-0.00842261
-0.000536279
-0.00870355
-0.000657736
-0.00901679
-0.0007853
-0.00936131
-0.000919194
-0.00973687
-0.00105966
-0.0101419
-0.01057
-0.00120616
5.3485e-05
-0.00267707
6.96516e-05
-0.00569942
2.57261e-05
-0.00703942
-5.55193e-05
-0.00749657
-0.000153401
-0.00769141
-0.000258839
-0.00786187
-0.000369783
-0.00806566
-0.000486235
-0.00830616
-0.000608401
-0.00858138
-0.000736572
-0.00888862
-0.000871018
-0.00922686
-0.00101203
-0.00959586
-0.00115988
-0.00999403
-0.010416
-0.00131389
4.63471e-05
-0.00272342
5.07476e-05
-0.00570382
-4.02542e-06
-0.00698464
-9.36253e-05
-0.00740698
-0.00019848
-0.00758656
-0.00031039
-0.00774996
-0.000427728
-0.00794832
-0.000550604
-0.00818328
-0.000679284
-0.0084527
-0.000814092
-0.00875381
-0.000955334
-0.00908562
-0.00110337
-0.00944782
-0.00125855
-0.00983885
-0.0102545
-0.00142
3.9103e-05
-0.00276252
3.21027e-05
-0.00569682
-3.32366e-05
-0.0069193
-0.000130958
-0.00730925
-0.000242622
-0.00747489
-0.000360908
-0.00763167
-0.000484556
-0.00782467
-0.00061378
-0.00805406
-0.000748893
-0.00831759
-0.000890254
-0.00861245
-0.0010382
-0.00893767
-0.00119318
-0.00929284
-0.0013556
-0.00967644
-0.0100857
-0.0015244
3.18075e-05
-0.00279433
1.40292e-05
-0.00567904
-6.18377e-05
-0.00684344
-0.000167508
-0.00720358
-0.00028581
-0.00735659
-0.00041037
-0.00750711
-0.000540244
-0.0076948
-0.00067573
-0.00791857
-0.000817191
-0.00817613
-0.000965015
-0.00846463
-0.00111957
-0.00878311
-0.00128138
-0.00913103
-0.00145096
-0.00950686
-0.00990968
-0.00162702
2.44524e-05
-0.00281878
-3.32905e-06
-0.00565126
-8.98531e-05
-0.00675691
-0.000203261
-0.00709017
-0.000328033
-0.00723182
-0.000458757
-0.00737639
-0.000594765
-0.00755879
-0.000736425
-0.00777691
-0.000884143
-0.00802841
-0.00103834
-0.00831043
-0.0011994
-0.00862205
-0.00136793
-0.0089625
-0.00154456
-0.00933023
-0.00972645
-0.0017278
1.6974e-05
-0.00283576
-2.33915e-05
-0.00561089
-0.000117441
-0.00666286
-0.000238162
-0.00696945
-0.000369267
-0.00710072
-0.000506048
-0.00723961
-0.000648094
-0.00741674
-0.000795834
-0.00762917
-0.000949714
-0.00787453
-0.00111018
-0.00814997
-0.00127764
-0.00845458
-0.00145278
-0.00878736
-0.00163637
-0.00914665
-0.00953617
-0.00182665
9.52434e-06
-0.00284528
-4.18971e-05
-0.00555947
-0.000144437
-0.00656032
-0.000272192
-0.0068417
-0.000409491
-0.00696342
-0.000552224
-0.00709687
-0.000700207
-0.00726876
-0.000853926
-0.00747545
-0.00101387
-0.00771459
-0.0011805
-0.00798334
-0.00135426
-0.00828083
-0.0015359
-0.00860571
-0.00172633
-0.00895622
-0.00933908
-0.00192341
2.32733e-06
-0.00284761
-5.9766e-05
-0.00549738
-0.000170784
-0.00644931
-0.00030534
-0.00670714
-0.00044869
-0.00682007
-0.000597264
-0.0069483
-0.000751079
-0.00711495
-0.000910673
-0.00731586
-0.00107657
-0.00754869
-0.00124926
-0.00781065
-0.0014292
-0.00810089
-0.00161723
-0.00841768
-0.00181436
-0.0087591
-0.00913548
-0.00201795
-5.30037e-06
-0.00284231
-7.71572e-05
-0.00542552
-0.000196442
-0.00633002
-0.000337591
-0.00656599
-0.000486848
-0.00667081
-0.000641151
-0.006794
-0.000800686
-0.00695541
-0.000966046
-0.0071505
-0.00113779
-0.00737695
-0.00131642
-0.00763202
-0.00150243
-0.00791488
-0.00169675
-0.00822336
-0.00190038
-0.00855546
-0.00892532
-0.00211054
-1.28306e-05
-0.00282948
-9.41069e-05
-0.00534425
-0.000221385
-0.00620274
-0.000368929
-0.00641845
-0.000523951
-0.00651579
-0.000683864
-0.00663408
-0.000849005
-0.00679027
-0.00102001
-0.00697949
-0.00119748
-0.00719948
-0.00138194
-0.00744757
-0.00157394
-0.00772288
-0.00177447
-0.00802282
-0.0019844
-0.00834553
-0.00870871
-0.00220101
-2.01236e-05
-0.00280935
-0.000110611
-0.00525376
-0.000245599
-0.00606776
-0.000399341
-0.00626471
-0.000559985
-0.00635514
-0.000725386
-0.00646868
-0.000896012
-0.00661964
-0.00107255
-0.00680295
-0.00125562
-0.0070164
-0.00144579
-0.0072574
-0.00164372
-0.00752495
-0.00185048
-0.00781606
-0.00206616
-0.00812986
-0.00848751
-0.00228736
-2.7243e-05
-0.00278211
-0.000126659
-0.00515434
-0.000269069
-0.00592535
-0.000428816
-0.00610496
-0.000594939
-0.00618902
-0.0007657
-0.00629792
-0.000941684
-0.00644366
-0.00112362
-0.00662102
-0.00131216
-0.00682786
-0.00150792
-0.00706165
-0.00171171
-0.00732116
-0.00192458
-0.00760319
-0.00214663
-0.00790781
-0.00826586
-0.00236827
-3.41946e-05
-0.00274792
-0.000142239
-0.0050463
-0.000291787
-0.0057758
-0.000457345
-0.0059394
-0.0006288
-0.00601757
-0.000804789
-0.00612193
-0.000986
-0.00626245
-0.0011732
-0.00643381
-0.00136708
-0.00663398
-0.0015683
-0.00686042
-0.00177778
-0.00711169
-0.00199594
-0.00738503
-0.00221957
-0.00768418
-0.00802116
-0.00246427
-4.09729e-05
-0.00270694
-0.000157339
-0.00492993
-0.000313743
-0.00561939
-0.000484918
-0.00576823
-0.000661556
-0.00584093
-0.000842635
-0.00594086
-0.00102894
-0.00607615
-0.00122126
-0.00624149
-0.00142034
-0.00643491
-0.00162689
-0.00665387
-0.00184176
-0.00689682
-0.00206489
-0.0071619
-0.00229575
-0.00745332
-0.00777146
-0.00254544
-4.75686e-05
-0.00265937
-0.000171946
-0.00480555
-0.000334929
-0.00545641
-0.000511528
-0.00559163
-0.000693196
-0.00565926
-0.000879222
-0.00575483
-0.00107047
-0.0058849
-0.00126778
-0.00604418
-0.00147191
-0.00623077
-0.00168365
-0.00644213
-0.00190375
-0.00667672
-0.00213229
-0.00693336
-0.00237024
-0.00721536
-0.00751793
-0.00262377
-5.39717e-05
-0.0026054
-0.00018605
-0.00467347
-0.000355339
-0.00528712
-0.000537167
-0.0054098
-0.000723709
-0.00547272
-0.000914535
-0.005564
-0.00111058
-0.00568885
-0.00131273
-0.00584204
-0.00152177
-0.00602173
-0.00173851
-0.00622539
-0.00196367
-0.00645156
-0.00219753
-0.0066995
-0.00244157
-0.00697132
-0.00726019
-0.00269931