/*--------------------------------*- C++ -*----------------------------------*\
  =========                 |
  \\      /  F ield         | OpenFOAM: The Open Source CFD Toolbox
   \\    /   O peration     | Website:  https://openfoam.org
    \\  /    A nd           | Version:  7
     \\/     M anipulation  |
\*---------------------------------------------------------------------------*/
FoamFile
{
    version     2.0;
    format      ascii;
    class       volVectorField;
    location    "5";
    object      U;
}
// * * * * * * * * * * * * * * * * * * * * * * * * * * * * * * * * * * * * * //

dimensions      [0 1 -1 0 0 0 0];

internalField   nonuniform List<vector> 
16660
(
(-0.0119624 0.00485455 -3.91078e-21)
(-0.0558072 0.00869598 -1.78437e-20)
(-0.120723 0.0102305 -2.49618e-20)
(-0.184703 0.0107456 6.84958e-21)
(-0.249401 0.0108754 7.82182e-21)
(-0.311818 0.0108145 1.82577e-22)
(-0.371954 0.010548 -1.52885e-20)
(-0.42836 0.00999737 -3.60035e-21)
(-0.479659 0.00908004 -2.37566e-20)
(-0.523894 0.00772138 -3.13647e-21)
(-0.558943 0.00587814 -2.2331e-20)
(-0.58261 0.00346104 -2.35033e-20)
(-0.593502 0.000752954 3.77663e-21)
(-0.584933 -0.0031317 -1.33715e-20)
(-0.0121982 0.0144497 -3.1994e-21)
(-0.0556477 0.0259368 6.94866e-20)
(-0.119698 0.0305507 -1.19123e-20)
(-0.182722 0.0321063 -8.78492e-21)
(-0.246296 0.032498 -4.07373e-20)
(-0.307394 0.0323115 1.90119e-20)
(-0.36596 0.0315074 1.90741e-20)
(-0.42051 0.0298537 6.176e-20)
(-0.46964 0.0271047 -9.11601e-21)
(-0.511367 0.0230361 -2.31914e-20)
(-0.543583 0.0175279 3.91928e-20)
(-0.563956 0.0102771 3.57329e-20)
(-0.571586 0.00224137 3.86537e-20)
(-0.558381 -0.00942893 3.50376e-20)
(-0.0126589 0.0237197 4.32201e-21)
(-0.0553322 0.0427463 -9.67687e-20)
(-0.117676 0.0504698 1.77652e-20)
(-0.178808 0.0530955 -8.06815e-20)
(-0.24016 0.0537531 -4.97521e-20)
(-0.298657 0.0534268 5.32555e-21)
(-0.354131 0.0520669 -2.68029e-21)
(-0.405041 0.0492973 -6.1437e-20)
(-0.449931 0.0447164 8.60136e-20)
(-0.48678 0.037949 2.31011e-20)
(-0.51355 0.028832 1.51147e-20)
(-0.527596 0.0167401 -1.16719e-19)
(-0.529209 0.00362216 5.32951e-20)
(-0.507237 -0.0158741 3.09466e-20)
(-0.0133227 0.0324602 1.14613e-20)
(-0.0548679 0.0588475 -4.12465e-20)
(-0.114706 0.0697262 1.94595e-20)
(-0.173056 0.0734696 3.53817e-20)
(-0.23114 0.0744007 -1.04163e-20)
(-0.285822 0.0739125 -1.06187e-19)
(-0.336782 0.0719686 1.2564e-19)
(-0.382397 0.0680645 1.57732e-19)
(-0.421165 0.0616574 1.7636e-20)
(-0.451015 0.0522187 -3.87242e-20)
(-0.470119 0.0396079 7.47561e-20)
(-0.475248 0.0226894 5.15258e-20)
(-0.468957 0.00488191 -5.48127e-20)
(-0.434913 -0.0224311 -2.09464e-19)
(-0.0141588 0.0404852 7.69923e-20)
(-0.0542655 0.0739783 -1.55488e-20)
(-0.110866 0.0880665 9.84203e-20)
(-0.165602 0.0929914 -1.87435e-20)
(-0.219448 0.0942082 1.01106e-19)
(-0.269203 0.0935301 -3.68459e-20)
(-0.314362 0.0909665 -9.88396e-20)
(-0.353216 0.085907 -3.36468e-20)
(-0.384233 0.0776909 -6.58039e-20)
(-0.405291 0.0656322 9.24924e-20)
(-0.415011 0.0497185 -1.44247e-19)
(-0.409132 0.0280521 1.94107e-19)
(-0.394056 0.0060574 -2.38908e-20)
(-0.345554 -0.0289065 1.8576e-19)
(-0.0151286 0.0476331 -5.67631e-20)
(-0.0535384 0.0878982 1.42129e-19)
(-0.106253 0.105249 -1.10487e-19)
(-0.156626 0.111432 7.10368e-20)
(-0.205359 0.112952 6.48977e-20)
(-0.249199 0.112053 1.07022e-19)
(-0.287439 0.10883 1.07301e-19)
(-0.318291 0.102595 -8.24975e-20)
(-0.340236 0.0926016 2.48661e-20)
(-0.351074 0.0780024 -1.5625e-19)
(-0.350251 0.0590515 9.46126e-20)
(-0.331742 0.0328326 -2.35647e-19)
(-0.307933 0.00717433 -1.09179e-20)
(-0.243382 -0.0350193 -6.84001e-20)
(-0.0161879 0.0537724 -1.46298e-20)
(-0.0527034 0.100393 4.95572e-21)
(-0.100984 0.121047 1.32125e-19)
(-0.146337 0.128573 -5.78983e-20)
(-0.189197 0.130421 -8.30673e-20)
(-0.226278 0.12927 -1.44051e-19)
(-0.256676 0.125345 -8.04296e-20)
(-0.278538 0.117917 -2.37005e-20)
(-0.290434 0.106194 1.82324e-19)
(-0.290012 0.0891622 2.42865e-20)
(-0.278056 0.0674852 2.31038e-20)
(-0.245739 0.0370918 3.42196e-19)
(-0.213977 0.00816855 -2.87134e-20)
(-0.132368 -0.0401919 6.23485e-20)
(-0.0172894 0.0588056 -2.20151e-21)
(-0.0517792 0.111281 -3.18919e-20)
(-0.095192 0.135253 -1.71707e-20)
(-0.13498 0.144207 -1.04411e-19)
(-0.171329 0.146413 -5.56631e-20)
(-0.200965 0.144984 2.11643e-19)
(-0.222809 0.140317 -7.96585e-20)
(-0.234962 0.131684 -3.57763e-20)
(-0.236186 0.118292 -1.44901e-20)
(-0.223861 0.0989665 -1.18766e-19)
(-0.200747 0.0748536 -9.74557e-20)
(-0.15394 0.0409684 -2.75887e-19)
(-0.115324 0.00864904 -2.07316e-19)
(-0.0164375 -0.0437228 1.40654e-19)
(-0.0183852 0.0626722 -8.51417e-20)
(-0.0507871 0.120415 1.53058e-19)
(-0.0890224 0.14768 3.54292e-20)
(-0.122817 0.158143 1.25249e-19)
(-0.152154 0.160743 7.039e-21)
(-0.173826 0.159013 -2.25377e-20)
(-0.186617 0.15357 -1.72704e-20)
(-0.188614 0.14373 3.54444e-19)
(-0.1789 0.12874 -4.11314e-19)
(-0.154429 0.107306 1.80039e-20)
(-0.120594 0.0808832 3.83173e-20)
(-0.0593805 0.0447362 2.03426e-19)
(-0.0148161 0.00800506 -2.47805e-19)
(0.0994036 -0.0461073 1.24797e-19)
(-0.0194293 0.0653501 -1.86232e-19)
(-0.0497493 0.127692 -6.44538e-20)
(-0.0826284 0.158169 1.20784e-20)
(-0.110129 0.170203 3.8802e-20)
(-0.132093 0.173235 -2.62108e-19)
(-0.14545 0.171191 8.34998e-20)
(-0.148902 0.164946 -7.48868e-20)
(-0.140558 0.15391 -2.42651e-19)
(-0.119969 0.137394 1.81045e-19)
(-0.0835386 0.114136 1.05236e-19)
(-0.0396222 0.0851689 7.70445e-20)
(0.0350566 0.0483035 3.56745e-19)
(0.0843954 0.00686469 3.82142e-19)
(0.214414 -0.0483751 -1.11056e-19)
(-0.0203806 0.0668556 2.09279e-19)
(-0.0486894 0.133048 -2.0206e-19)
(-0.0761671 0.166587 1.66835e-19)
(-0.0972059 0.180229 -2.70326e-19)
(-0.11158 0.183729 4.33849e-21)
(-0.116435 0.181367 -2.59342e-19)
(-0.110466 0.174303 -8.67155e-20)
(-0.0918444 0.162102 1.99461e-19)
(-0.0607006 0.1441 2.56887e-19)
(-0.012953 0.119402 1.70208e-19)
(0.0401811 0.0877018 1.77094e-21)
(0.127549 0.0509144 -4.66838e-19)
(0.179531 0.00574868 2.07084e-19)
(0.326271 -0.0511 -2.04354e-19)
(-0.0212057 0.0672421 -7.32086e-20)
(-0.0476311 0.136468 -1.42309e-19)
(-0.0697939 0.172841 -1.90328e-19)
(-0.0843369 0.188082 4.07587e-19)
(-0.0910478 0.192079 3.13149e-19)
(-0.0873747 0.189403 2.19074e-19)
(-0.0720928 0.181522 3.09932e-19)
(-0.0434849 0.168185 -2.03459e-19)
(-0.00231953 0.148757 -3.80793e-19)
(0.0559273 0.12296 -3.91443e-19)
(0.116964 0.08865 3.59772e-19)
(0.216253 0.052174 2.65834e-19)
(0.269607 0.00389794 -2.2976e-19)
(0.433793 -0.0544282 -6.20449e-20)
(-0.0218798 0.0665931 2.27444e-19)
(-0.0465994 0.137984 2.20569e-19)
(-0.0636579 0.176874 -9.25832e-20)
(-0.071803 0.193649 2.58288e-19)
(-0.0709188 0.198153 -1.49314e-19)
(-0.0588402 0.195172 -2.91842e-19)
(-0.0345197 0.186479 -1.65296e-19)
(0.00359664 0.17206 1.32103e-19)
(0.0540518 0.151294 2.26751e-19)
(0.121891 0.124698 -2.94694e-20)
(0.18973 0.0878312 -1.77675e-19)
(0.299755 0.052078 -3.27057e-19)
(0.354808 0.0007226 -1.45889e-21)
(0.537264 -0.058489 1.74176e-19)
(-0.0223879 0.065022 -7.6376e-20)
(-0.0456183 0.137677 1.43315e-19)
(-0.0578944 0.178665 2.1505e-19)
(-0.0598683 0.196849 -3.41926e-19)
(-0.0515897 0.201841 5.31037e-19)
(-0.0313679 0.19856 1.71523e-19)
(0.00158393 0.189063 3.17527e-19)
(0.0485932 0.173643 -2.76109e-19)
(0.10753 0.151597 3.81323e-19)
(0.18396 0.124556 3.61103e-19)
(0.258126 0.0852193 -9.11281e-20)
(0.377646 0.0504518 -2.12418e-19)
(0.436566 -0.00408551 1.91271e-19)
(0.637813 -0.0631344 3.36229e-20)
(-0.0227283 0.0626669 -2.08411e-19)
(-0.0447118 0.135669 5.9513e-20)
(-0.0526207 0.178243 1.05547e-19)
(-0.0487644 0.197639 1.28428e-19)
(-0.033416 0.203057 -3.828e-19)
(-0.00543206 0.199474 -4.31164e-20)
(0.03564 0.189195 -8.06955e-20)
(0.0908555 0.172858 3.85358e-19)
(0.157527 0.149587 -8.43116e-20)
(0.241658 0.122367 2.17375e-19)
(0.32251 0.0808792 -7.99521e-20)
(0.450672 0.0470894 4.21585e-19)
(0.51745 -0.0105084 -7.5765e-20)
(0.736548 -0.067884 -1.64824e-19)
(-0.0229116 0.0596802 3.43007e-20)
(-0.0439021 0.13212 2.55428e-19)
(-0.0479318 0.175691 -1.54612e-19)
(-0.0386798 0.196016 1.25267e-19)
(-0.0166893 0.201754 -1.63961e-19)
(0.0185859 0.19785 4.9076e-20)
(0.0672167 0.186814 -2.1505e-19)
(0.129968 0.169654 -2.00939e-19)
(0.20383 0.145242 -6.54573e-19)
(0.295097 0.118038 -4.9123e-19)
(0.384041 0.0749099 -2.934e-19)
(0.520791 0.0419304 -6.51888e-19)
(0.600497 -0.0180791 -1.74359e-19)
(0.833752 -0.0720144 -5.14838e-21)
(-0.0229609 0.0562229 -2.34734e-19)
(-0.04321 0.127228 -6.13346e-19)
(-0.0438917 0.171138 -2.94339e-19)
(-0.0297458 0.192032 -4.07582e-19)
(-0.00161265 0.197928 4.25522e-19)
(0.0404374 0.193661 -6.86017e-20)
(0.0960905 0.181898 -8.48686e-20)
(0.165855 0.16402 -4.47029e-19)
(0.246792 0.138639 6.0934e-19)
(0.345284 0.111512 2.5121e-19)
(0.444623 0.0675494 3.68203e-19)
(0.590838 0.0351965 9.94818e-20)
(0.688057 -0.0258914 4.98638e-19)
(0.928424 -0.0747359 -3.22936e-19)
(-0.0229098 0.0524576 2.75693e-19)
(-0.042653 0.121214 -9.31902e-20)
(-0.0405273 0.164764 -2.78955e-19)
(-0.0220202 0.185796 -1.96708e-20)
(0.0117294 0.191636 6.16824e-20)
(0.0600566 0.186943 2.61725e-19)
(0.122323 0.17449 2.33201e-20)
(0.198891 0.156016 1.27457e-19)
(0.287383 0.129954 -7.297e-19)
(0.394187 0.102879 7.56448e-20)
(0.506845 0.0592044 -1.00701e-21)
(0.663808 0.0274938 2.86706e-19)
(0.780603 -0.0328108 -7.40891e-20)
(1.01839 -0.0754194 2.7616e-19)
(-0.0228007 0.0485414 -8.84196e-20)
(-0.0422437 0.114318 1.68201e-19)
(-0.0378226 0.156789 6.62581e-19)
(-0.0154711 0.177478 2.89767e-19)
(0.0234033 0.183007 -1.63301e-19)
(0.0776173 0.177811 -3.31186e-20)
(0.146348 0.164729 -2.90227e-19)
(0.230018 0.145821 4.16873e-19)
(0.327311 0.119515 3.6718e-19)
(0.44451 0.092635 -3.95171e-19)
(0.57342 0.0505203 -7.39811e-20)
(0.741761 0.01978 9.68364e-20)
(0.876167 -0.0377907 -2.95065e-19)
(1.1009 -0.0737765 -2.81426e-19)
(-0.0226815 0.0446191 -7.89554e-20)
(-0.0419857 0.106787 -3.57384e-20)
(-0.0357129 0.147476 6.79878e-20)
(-0.00996109 0.167314 -3.00799e-19)
(0.0336585 0.172253 2.37734e-20)
(0.0935879 0.16648 -4.56037e-19)
(0.169045 0.152878 -1.00361e-20)
(0.260791 0.133783 -3.09333e-19)
(0.368943 0.107836 -9.40485e-20)
(0.499304 0.0815639 2.55778e-19)
(0.646392 0.0423601 -2.82629e-19)
(0.824819 0.0131322 -7.10249e-19)
(0.970809 -0.0401388 3.76472e-19)
(1.17341 -0.0699079 6.01383e-19)
(-0.0226018 0.0408184 -6.64436e-20)
(-0.0418697 0.0988639 -3.77516e-20)
(-0.0340782 0.137114 8.79746e-20)
(-0.00523457 0.1556 5.90461e-19)
(0.0429539 0.159675 2.00032e-19)
(0.10877 0.153281 2.277e-19)
(0.19177 0.13935 8.70229e-20)
(0.293328 0.120442 8.48725e-20)
(0.415006 0.0956524 -3.35379e-21)
(0.561207 0.0706968 -1.53351e-19)
(0.72627 0.0356528 2.91671e-19)
(0.910826 0.00841546 9.28089e-20)
(1.05988 -0.0396313 -6.62091e-20)
(1.23424 -0.0642205 -6.93237e-19)
(-0.022608 0.0372447 -3.54857e-19)
(-0.0418684 0.0907761 -3.82564e-20)
(-0.0327391 0.126012 -5.66003e-19)
(-0.000909636 0.142684 -3.58248e-19)
(0.0519703 0.14566 -2.2628e-19)
(0.124307 0.138664 2.022e-19)
(0.216306 0.124716 2.82778e-19)
(0.330092 0.106537 6.5665e-20)
(0.468067 0.0838737 -1.30327e-19)
(0.631597 0.0611379 4.79235e-19)
(0.811532 0.0311528 3.9322e-19)
(0.995965 0.00605036 1.63512e-19)
(1.13937 -0.0364633 -1.96959e-19)
(1.28286 -0.0572819 7.62384e-19)
(-0.0227389 0.0339783 4.99328e-19)
(-0.0419312 0.0827298 -1.00124e-19)
(-0.0314542 0.114482 2.47025e-19)
(0.00352139 0.128955 2.75115e-19)
(0.0616016 0.130669 1.48641e-19)
(0.141634 0.123193 5.10756e-20)
(0.244714 0.109687 1.2625e-19)
(0.373511 0.0929694 -2.13714e-19)
(0.529875 0.0734772 3.63442e-19)
(0.709978 0.0538232 -2.39623e-19)
(0.898866 0.029232 -2.04693e-19)
(1.076 0.00599238 -7.07335e-20)
(1.20676 -0.0310996 -3.14932e-19)
(1.31978 -0.0496844 -6.44476e-19)
(-0.0230211 0.0310722 3.48192e-19)
(-0.0419804 0.0748999 4.49179e-19)
(-0.0299221 0.102827 3.36968e-19)
(0.00867978 0.114821 -3.0165e-19)
(0.0729169 0.11522 -5.51987e-20)
(0.16238 0.107517 -5.76329e-21)
(0.279081 0.0950695 2.25089e-19)
(0.425492 0.0807034 4.20774e-19)
(0.600755 0.0653309 -2.54465e-19)
(0.793916 0.0493072 1.19665e-19)
(0.984075 0.0298215 -3.6191e-19)
(1.14744 0.00788128 1.69429e-19)
(1.26118 -0.0240989 4.37104e-19)
(1.34624 -0.0419571 -1.02438e-19)
(-0.0234649 0.0285512 -4.77007e-19)
(-0.0419088 0.0674249 2.63738e-19)
(-0.027788 0.0913274 -3.31372e-19)
(0.0152746 0.100694 6.91716e-20)
(0.0870931 0.0998557 -1.00209e-19)
(0.1882 0.092326 1.71593e-19)
(0.321193 0.0817003 -2.85525e-19)
(0.486933 0.0706317 3.38256e-20)
(0.679336 0.0600058 2.53069e-19)
(0.879634 0.0476801 -5.01848e-19)
(1.0632 0.0325158 4.02837e-19)
(1.20821 0.0112426 -3.39654e-19)
(1.30305 -0.0159625 2.08718e-20)
(1.36386 -0.034539 7.58128e-19)
(-0.0240618 0.0264133 -4.1063e-19)
(-0.0415797 0.0604028 -4.51509e-19)
(-0.0246566 0.0802272 -4.01685e-19)
(0.0240637 0.0869589 -1.85854e-19)
(0.10532 0.0851081 -3.3841e-19)
(0.220588 0.0783023 -4.71314e-19)
(0.372204 0.070357 -2.03739e-19)
(0.5574 0.0634229 -8.8554e-20)
(0.762765 0.0576623 -6.43471e-19)
(0.962999 0.0486452 1.69612e-19)
(1.13337 0.036748 6.2841e-21)
(1.25767 0.015657 3.53273e-19)
(1.33359 -0.00704387 -2.57482e-19)
(1.3743 -0.0278227 7.77492e-20)
(-0.0247826 0.0246308 4.11753e-19)
(-0.0408306 0.0538899 2.7473e-19)
(-0.0201098 0.0697232 7.37984e-19)
(0.0358054 0.0739589 -7.44446e-20)
(0.128697 0.0714672 1.73289e-19)
(0.260671 0.0660716 -2.04949e-19)
(0.432364 0.0616672 3.15384e-19)
(0.635092 0.0593994 -2.40836e-20)
(0.847365 0.0580728 5.82807e-20)
(1.04045 0.0516875 2.38457e-19)
(1.19306 0.0419472 -1.14459e-19)
(1.29631 0.0208657 -3.78566e-19)
(1.35437 0.00239462 -3.73482e-20)
(1.37917 -0.0222424 -5.87027e-19)
(-0.0255777 0.0231546 -5.4321e-19)
(-0.0394795 0.0479024 4.11828e-19)
(-0.013728 0.0599585 -6.42405e-19)
(0.0512084 0.0619749 6.30131e-19)
(0.158128 0.0593543 8.02641e-20)
(0.309041 0.0561564 -4.93898e-20)
(0.500892 0.0560264 -5.07194e-19)
(0.717165 0.0585012 -3.6408e-19)
(0.929458 0.0607598 3.60518e-19)
(1.10955 0.0562353 9.70939e-20)
(1.24203 0.047648 9.26627e-20)
(1.32526 0.0267741 6.1213e-19)
(1.36712 0.0118788 -3.60933e-19)
(1.37983 -0.0183836 4.82743e-20)
(-0.0263791 0.0219191 -4.36906e-20)
(-0.0373314 0.04242 -3.76412e-19)
(-0.00511059 0.0510203 7.08035e-19)
(0.0708869 0.0512188 -2.23588e-19)
(0.194242 0.0491086 -1.28857e-19)
(0.365642 0.0489399 6.31439e-19)
(0.57604 0.0535466 -8.91248e-20)
(0.800299 0.0603585 4.83189e-19)
(1.00603 0.0651639 -3.76296e-19)
(1.16906 0.0617644 -1.13476e-19)
(1.28087 0.0535553 -1.06348e-19)
(1.34597 0.0332976 -5.19478e-19)
(1.37386 0.0203853 2.64921e-19)
(1.37731 -0.0166016 -3.32969e-20)
(-0.0271064 0.0208512 1.95797e-19)
(-0.0341847 0.0373905 -2.45081e-19)
(0.00610653 0.0429435 7.52455e-20)
(0.0953286 0.0418361 1.71911e-19)
(0.237331 0.0409877 1.68959e-19)
(0.429734 0.0446364 -4.34624e-19)
(0.655359 0.0540608 2.31694e-19)
(0.881318 0.0644339 2.52286e-20)
(1.07503 0.0707649 4.21153e-19)
(1.21873 0.0678545 1.40412e-20)
(1.31066 0.0595364 2.48374e-19)
(1.35981 0.0401005 3.61798e-19)
(1.3764 0.0269871 6.9109e-21)
(1.37603 -0.00427285 5.36697e-19)
(-0.0276746 0.0198763 -1.81069e-19)
(-0.0298367 0.0327359 3.74135e-19)
(0.0202407 0.0357212 3.68623e-19)
(0.124876 0.0339191 -3.0331e-19)
(0.287323 0.0351747 -3.13852e-19)
(0.49995 0.0432739 -2.3408e-19)
(0.736099 0.0571909 1.758e-19)
(0.957637 0.0701643 1.34145e-19)
(1.13541 0.0771364 1.02429e-19)
(1.25904 0.0742097 -1.37048e-19)
(1.33267 0.0655246 8.3819e-20)
(1.36817 0.0466895 -1.2977e-19)
(1.37639 0.0340652 2.68558e-19)
(1.37179 0.00347178 -1.26318e-20)
(-0.0279958 0.0189203 5.26965e-19)
(-0.0240931 0.0283659 -2.85917e-19)
(0.0375585 0.0293194 3.70745e-19)
(0.15972 0.0275298 -6.24387e-20)
(0.343765 0.0317834 8.17163e-20)
(0.574445 0.0446991 4.85481e-19)
(0.81562 0.0624517 2.48213e-19)
(1.02746 0.0770514 5.15817e-20)
(1.1869 0.0839563 -2.99945e-19)
(1.29088 0.0806423 1.56569e-19)
(1.3482 0.0714212 4.71643e-20)
(1.37241 0.0532013 -1.44647e-19)
(1.37412 0.0404 -2.73305e-20)
(1.36665 0.0121351 -5.44008e-19)
(-0.027978 0.0179121 3.02247e-19)
(-0.0167737 0.0241924 1.0621e-19)
(0.0582761 0.0236957 -8.66367e-19)
(0.199899 0.0227238 -3.72656e-20)
(0.405842 0.030854 3.53446e-19)
(0.651128 0.0486136 5.11e-20)
(0.891698 0.0693502 -2.35103e-19)
(1.08976 0.0846959 4.92829e-20)
(1.22981 0.0909955 -2.07835e-19)
(1.31531 0.0870322 -1.8218e-20)
(1.3585 0.0772169 -1.26464e-19)
(1.37352 0.0594788 -6.48644e-20)
(1.37042 0.0466921 -3.20002e-19)
(1.36078 0.0199393 3.32484e-20)
(-0.0275288 0.0167914 1.246e-19)
(-0.00771162 0.0201403 1.86259e-19)
(0.0825646 0.0188177 5.93788e-19)
(0.245289 0.0195699 5.59797e-19)
(0.472419 0.0323424 -5.07272e-19)
(0.7279 0.0546354 -5.94868e-19)
(0.962677 0.0774479 -2.38377e-19)
(1.14416 0.0927969 -2.65378e-19)
(1.26478 0.0980985 8.84726e-20)
(1.33346 0.0933193 -1.59138e-19)
(1.36465 0.0828924 -1.38952e-19)
(1.37237 0.0656001 -1.42033e-20)
(1.36569 0.052724 -1.80153e-19)
(1.35451 0.0275235 4.46202e-19)
(-0.026559 0.0155139 -4.67473e-19)
(0.00324938 0.0161557 6.16272e-19)
(0.110553 0.0146826 -4.4122e-19)
(0.2956 0.0181544 -4.04779e-19)
(0.542126 0.0361167 -1.03784e-19)
(0.802874 0.0623637 5.28992e-19)
(1.02748 0.0863852 -2.10644e-19)
(1.19075 0.101136 -1.2736e-19)
(1.29266 0.105167 9.98987e-20)
(1.3464 0.0994784 2.99143e-19)
(1.36759 0.0884649 7.9519e-20)
(1.36958 0.0715609 -1.51491e-19)
(1.36033 0.058637 9.6882e-20)
(1.34807 0.034772 -9.90875e-20)
(-0.0249852 0.0140531 7.47874e-19)
(0.0162571 0.0122127 -5.98694e-19)
(0.142329 0.0113332 4.27376e-19)
(0.35036 0.0185683 -1.06362e-19)
(0.613468 0.0419688 2.12301e-19)
(0.874501 0.0714267 1.70868e-19)
(1.08555 0.0958806 1.38561e-21)
(1.22994 0.109561 -1.54973e-19)
(1.31437 0.112144 -1.00494e-19)
(1.3551 0.105511 1.76531e-19)
(1.36809 0.0939525 9.74595e-20)
(1.36567 0.0774048 1.95343e-19)
(1.35457 0.0644214 4.47206e-19)
(1.34156 0.0417665 -2.38002e-19)
(-0.0227296 0.0124006 -6.45541e-19)
(0.0314516 0.00831952 4.84008e-19)
(0.177927 0.00886663 6.68771e-20)
(0.408914 0.0208812 2.75169e-19)
(0.684956 0.049643 -1.92771e-20)
(0.94163 0.0815041 9.10768e-20)
(1.13672 0.10572 4.64817e-19)
(1.26233 0.117969 2.83652e-19)
(1.33081 0.119006 1.52542e-19)
(1.3604 0.111434 -6.05516e-19)
(1.36678 0.0993824 -1.21096e-19)
(1.36099 0.0831559 -1.09447e-19)
(1.34858 0.0701141 9.20879e-21)
(1.33508 0.0485349 -9.17112e-21)
(-0.0197199 0.0105646 1.61591e-19)
(0.048965 0.00452153 -8.03594e-19)
(0.217313 0.0074336 -2.39008e-19)
(0.470439 0.0251151 1.88936e-19)
(0.755217 0.0588691 -1.89296e-19)
(1.00349 0.0923328 -1.12327e-20)
(1.18113 0.115744 2.11046e-19)
(1.28862 0.126298 -3.00167e-19)
(1.34282 0.12575 -3.23747e-19)
(1.36303 0.117272 2.37859e-19)
(1.36412 0.10478 2.87027e-20)
(1.35579 0.0888421 2.23928e-19)
(1.34249 0.0757291 -7.46524e-20)
(1.32866 0.0551057 2.3889e-19)
(-0.0158886 0.00856765 -3.01481e-19)
(0.0689187 0.0009027 7.12323e-19)
(0.260361 0.00722383 -2.74166e-19)
(0.533986 0.0312303 -3.8851e-19)
(0.823074 0.0693888 4.08381e-20)
(1.05966 0.103702 -2.45182e-21)
(1.21912 0.125839 2.16351e-19)
(1.30955 0.134514 3.62838e-19)
(1.35117 0.13239 5.27961e-19)
(1.36357 0.123055 -1.29965e-20)
(1.3605 0.11017 1.48691e-20)
(1.35027 0.0944836 -2.84636e-19)
(1.33635 0.0812824 -1.57028e-19)
(1.32231 0.0615046 -9.86345e-20)
(-0.011172 0.00644479 2.19821e-19)
(0.0914177 -0.00241457 1.5162e-19)
(0.306832 0.0084407 3.70286e-19)
(0.598541 0.0391289 4.24896e-19)
(0.887591 0.0809711 -5.23788e-20)
(1.10998 0.115446 8.70022e-20)
(1.25116 0.135924 -2.62182e-19)
(1.32583 0.142606 2.89568e-19)
(1.35653 0.138947 -7.50458e-20)
(1.3625 0.128812 -2.46079e-19)
(1.35617 0.115573 1.25463e-19)
(1.34455 0.100097 -1.1294e-19)
(1.33022 0.0867847 1.80998e-19)
(1.31605 0.0677509 1.37735e-19)
(-0.00550992 0.00424107 -1.94089e-20)
(0.116541 -0.00527152 -2.8904e-19)
(0.356364 0.0112701 -3.52855e-19)
(0.663093 0.0486716 -1.17924e-19)
(0.948079 0.093417 1.88195e-19)
(1.15449 0.127435 -4.15263e-20)
(1.27778 0.145949 -1.25156e-19)
(1.33812 0.150578 1.22453e-19)
(1.35946 0.145447 4.41648e-19)
(1.36021 0.134568 3.82832e-19)
(1.35136 0.121004 -1.37285e-19)
(1.33869 0.105695 9.04152e-20)
(1.32409 0.0922444 -8.38e-20)
(1.30986 0.0738618 -1.32994e-19)
(0.0011549 0.00201012 -1.31279e-19)
(0.14433 -0.00747757 -3.7758e-19)
(0.408471 0.0158526 4.25625e-19)
(0.72669 0.0596991 -1.11963e-19)
(1.00408 0.106559 1.31759e-20)
(1.1934 0.139571 9.30072e-21)
(1.29954 0.155883 3.23521e-20)
(1.34705 0.158447 -3.6076e-19)
(1.36045 0.151918 1.15753e-19)
(1.35698 0.140345 2.42103e-19)
(1.34619 0.126476 -2.29949e-19)
(1.33276 0.111284 1.70839e-19)
(1.31799 0.0976675 8.00357e-20)
(1.30374 0.079851 4.13195e-20)
(0.00887708 -0.000186564 2.92327e-20)
(0.174774 -0.00881823 1.6961e-19)
(0.46257 0.0222671 2.88504e-19)
(0.788495 0.072049 -5.68193e-20)
(1.05533 0.120257 2.48388e-19)
(1.22702 0.151779 1.11534e-19)
(1.31701 0.165715 2.84714e-19)
(1.35314 0.166232 2.78252e-19)
(1.35988 0.158386 -3.35902e-19)
(1.35304 0.146163 -2.54564e-19)
(1.34076 0.131996 -2.91943e-19)
(1.32677 0.116871 -1.37029e-19)
(1.3119 0.103058 6.12703e-20)
(1.29766 0.08573 1.23953e-19)
(0.0177078 -0.00227971 4.43532e-20)
(0.2078 -0.00906689 7.23984e-20)
(0.518002 0.0305283 -7.32456e-19)
(0.847805 0.0855672 2.58852e-19)
(1.10174 0.134395 -2.19887e-19)
(1.2557 0.164009 -1.14009e-19)
(1.33069 0.175445 -1.58975e-19)
(1.35688 0.173959 -9.45912e-20)
(1.35807 0.164873 -2.29895e-19)
(1.34854 0.152033 4.20677e-19)
(1.33513 0.137568 6.60988e-20)
(1.32074 0.122456 1.27363e-19)
(1.30582 0.108418 -1.6189e-19)
(1.29162 0.0915078 2.87873e-20)
(0.0276931 -0.00419183 5.79242e-20)
(0.243265 -0.00799988 -1.25379e-19)
(0.574077 0.0405966 2.50051e-19)
(0.904066 0.100112 -2.32999e-19)
(1.14333 0.148877 -3.30093e-19)
(1.27986 0.176222 -1.86393e-19)
(1.3411 0.185081 -2.6798e-19)
(1.35865 0.181653 1.31806e-19)
(1.35527 0.171399 8.58748e-20)
(1.34362 0.157964 -2.1195e-19)
(1.32936 0.143193 1.95486e-20)
(1.31467 0.12804 -1.01619e-19)
(1.29974 0.11375 6.66792e-20)
(1.2856 0.0971916 -1.07652e-19)
(0.0388715 -0.00583687 -2.62555e-19)
(0.280952 -0.00541284 1.9505e-19)
(0.630105 0.0523926 -1.55878e-19)
(0.956871 0.115558 2.75548e-20)
(1.18023 0.163623 4.5103e-19)
(1.29988 0.188396 1.31906e-19)
(1.34865 0.194639 4.50343e-19)
(1.35878 0.189337 -1.88497e-19)
(1.35167 0.177977 3.03146e-20)
(1.33836 0.16396 2.31242e-19)
(1.32344 0.148867 -1.06439e-19)
(1.30854 0.133622 -1.53394e-20)
(1.29365 0.119052 -6.53115e-20)
(1.27958 0.102787 1.38244e-20)
(0.05127 -0.00712026 2.40006e-19)
(0.320573 -0.00113534 3.12292e-20)
(0.68543 0.0658128 1.07167e-19)
(1.00594 0.131791 -1.06166e-19)
(1.21261 0.178567 -9.31696e-20)
(1.31618 0.200517 -1.62772e-19)
(1.35376 0.204133 1.17877e-19)
(1.35756 0.197031 1.73611e-19)
(1.34741 0.184618 -8.86472e-20)
(1.3328 0.170021 -1.05767e-19)
(1.31741 0.154586 1.06478e-19)
(1.30236 0.139196 4.98857e-20)
(1.28752 0.124323 -1.68735e-19)
(1.27355 0.108297 -9.16302e-20)
(0.0648996 -0.0079399 1.17471e-19)
(0.361783 0.00495889 -2.24539e-19)
(0.739452 0.0807402 2.85861e-19)
(1.0511 0.148709 8.46855e-20)
(1.24071 0.193652 -2.09566e-20)
(1.32913 0.21258 -1.39793e-19)
(1.35674 0.213583 -2.9924e-19)
(1.35521 0.20475 -2.14325e-19)
(1.3426 0.191326 2.11985e-19)
(1.327 0.176145 -1.11185e-19)
(1.31125 0.160343 7.85996e-20)
(1.29611 0.144759 -1.03958e-19)
(1.28136 0.129561 1.10964e-19)
(1.26749 0.113724 -3.12606e-20)
(0.0797513 -0.00818821 -2.17404e-19)
(0.404188 0.0129475 -3.0192e-19)
(0.791642 0.0970522 3.23756e-20)
(1.09228 0.16622 5.22645e-20)
(1.26479 0.208833 1.15277e-19)
(1.33908 0.224582 -5.01124e-20)
(1.35791 0.223004 -4.62769e-20)
(1.3519 0.212508 2.14502e-19)
(1.33733 0.198102 1.22001e-20)
(1.32096 0.182326 -6.58409e-20)
(1.30497 0.166131 -7.20035e-20)
(1.28978 0.150304 3.72219e-20)
(1.27513 0.134762 1.24617e-19)
(1.26139 0.119068 7.31165e-20)
(0.0957924 -0.00775549 -8.43173e-22)
(0.447365 0.022861 3.38055e-19)
(0.841554 0.114625 1.4298e-19)
(1.12948 0.184238 -1.66084e-19)
(1.28511 0.224071 1.10116e-19)
(1.34635 0.236524 9.36352e-20)
(1.35751 0.232409 7.79846e-20)
(1.34777 0.22031 -1.88109e-19)
(1.33165 0.204941 -9.40866e-20)
(1.31471 0.188554 7.61408e-20)
(1.29855 0.171937 9.363e-21)
(1.28336 0.155823 -4.86168e-20)
(1.26884 0.139923 -6.44949e-20)
(1.25523 0.124328 -1.80502e-20)
(0.112964 -0.00653412 5.76424e-20)
(0.490876 0.0346875 -2.57447e-20)
(0.888823 0.133333 -2.81817e-19)
(1.16273 0.202682 -1.04334e-19)
(1.30193 0.239332 -2.37786e-19)
(1.35125 0.248409 6.08883e-20)
(1.35574 0.241808 2.8936e-20)
(1.34293 0.228158 7.09612e-20)
(1.32561 0.211838 -3.59324e-20)
(1.30824 0.194819 5.50297e-20)
(1.29198 0.177752 -2.20721e-20)
(1.27683 0.16131 2.79373e-20)
(1.26247 0.145036 -2.46125e-21)
(1.249 0.129501 -4.10037e-20)
(0.131183 -0.0044233 1.01564e-19)
(0.534281 0.0483803 -1.78771e-19)
(0.933163 0.153057 2.13635e-20)
(1.19213 0.221475 1.43546e-19)
(1.31551 0.254588 1.92559e-19)
(1.35401 0.260237 -1.37669e-19)
(1.35277 0.251208 8.51133e-20)
(1.33747 0.23605 1.36716e-20)
(1.31921 0.218782 -4.02986e-20)
(1.30155 0.201107 -4.32065e-20)
(1.28526 0.183562 5.4279e-20)
(1.27019 0.166754 5.66007e-20)
(1.25601 0.150096 -1.70311e-20)
(1.2427 0.134583 4.26755e-20)
(0.150336 -0.00133375 8.59292e-20)
(0.577154 0.0638643 6.55721e-20)
(0.974359 0.173675 1.39916e-19)
(1.21779 0.240541 -5.62457e-20)
(1.32611 0.269811 -7.8832e-20)
(1.35488 0.272009 8.516e-20)
(1.34875 0.260608 -9.30015e-20)
(1.33144 0.243979 -1.02685e-19)
(1.31248 0.225759 6.89189e-20)
(1.29465 0.207406 -4.53627e-20)
(1.27838 0.189354 -7.22467e-20)
(1.26342 0.172146 -5.81558e-20)
(1.24945 0.155094 4.05703e-20)
(1.2363 0.139569 -8.49539e-21)
(0.170293 0.00280843 -1.10363e-19)
(0.619088 0.0810426 5.169e-20)
(1.01226 0.195071 -9.93591e-20)
(1.23986 0.259807 -2.16874e-20)
(1.33396 0.284977 9.12678e-20)
(1.35403 0.28372 5.73776e-21)
(1.34378 0.270006 -5.30554e-21)
(1.32488 0.251933 4.23783e-20)
(1.30544 0.232754 -4.50281e-20)
(1.28751 0.213697 4.78896e-20)
(1.27132 0.195113 3.86179e-20)
(1.25651 0.177474 4.40381e-20)
(1.24278 0.160023 -1.06603e-20)
(1.22982 0.144451 -9.0254e-21)
(0.190898 0.00805885 6.33022e-21)
(0.659708 0.0998005 3.33544e-20)
(1.04678 0.217131 -5.83062e-20)
(1.25847 0.279202 -1.36763e-20)
(1.33928 0.300061 -1.59728e-20)
(1.35165 0.295365 -1.0907e-20)
(1.33796 0.279393 -1.59831e-20)
(1.31783 0.259898 -3.45873e-20)
(1.29806 0.239748 1.96793e-20)
(1.28014 0.219965 2.30245e-20)
(1.26408 0.200825 -4.36002e-21)
(1.24945 0.182728 -2.25371e-21)
(1.23599 0.164872 -2.97328e-20)
(1.22323 0.149223 1.51991e-20)
(0.211983 0.0144534 5.23551e-21)
(0.698673 0.120009 -1.32693e-20)
(1.07786 0.23974 3.29758e-20)
(1.27378 0.298656 2.28544e-20)
(1.34226 0.315036 -8.09836e-21)
(1.34787 0.306933 -1.50887e-21)
(1.33135 0.288757 1.12267e-20)
(1.31032 0.267856 1.7315e-21)
(1.29037 0.246721 -3.33073e-21)
(1.27252 0.22619 -1.49174e-20)
(1.25664 0.206471 -4.31542e-22)
(1.24224 0.187894 -9.83169e-22)
(1.22908 0.16963 1.13109e-20)
(1.21654 0.153876 5.60158e-21)
(0.233366 0.0220078 4.39476e-21)
(0.735678 0.14153 -1.0318e-20)
(1.10549 0.262787 3.03449e-20)
(1.28595 0.318101 2.23986e-20)
(1.34308 0.329878 -6.61575e-21)
(1.34281 0.318411 -1.92636e-21)
(1.32402 0.298081 9.10985e-21)
(1.30234 0.275786 2.77394e-21)
(1.28235 0.253653 -3.49941e-21)
(1.26465 0.232353 -1.32162e-20)
(1.249 0.212037 3.66413e-23)
(1.23487 0.192961 -1.69506e-22)
(1.22203 0.174286 9.18325e-21)
(1.20974 0.158399 4.46511e-21)
(0.254855 0.0307189 -1.40084e-21)
(0.770462 0.164214 3.23413e-20)
(1.12969 0.286161 -5.45743e-20)
(1.29514 0.337468 -1.87961e-20)
(1.3419 0.344556 -4.45256e-21)
(1.33659 0.329781 -1.5531e-20)
(1.316 0.307345 -1.63219e-20)
(1.29392 0.283664 -3.17594e-20)
(1.274 0.260519 2.05785e-20)
(1.25652 0.238434 2.52461e-20)
(1.24115 0.217503 -8.53951e-21)
(1.22734 0.197913 -9.13833e-22)
(1.21485 0.178824 -2.02143e-20)
(1.20284 0.162782 7.79923e-21)
(0.276257 0.0405656 -1.12621e-19)
(0.802803 0.187906 5.69246e-20)
(1.1505 0.309753 -1.09553e-19)
(1.3015 0.356694 -1.45869e-20)
(1.33888 0.359041 1.02807e-19)
(1.32927 0.341022 -1.30751e-20)
(1.30733 0.316524 1.52994e-21)
(1.28506 0.291465 3.39859e-20)
(1.26532 0.267297 -3.14137e-20)
(1.24813 0.244412 3.21946e-20)
(1.23308 0.222854 3.26686e-20)
(1.21962 0.202736 2.89891e-20)
(1.20753 0.18323 -9.53881e-21)
(1.19583 0.167014 -1.2226e-20)
(0.297375 0.0515109 6.44131e-20)
(0.832518 0.212446 6.33808e-20)
(1.16798 0.333453 1.3412e-19)
(1.30519 0.375713 -2.62482e-20)
(1.33414 0.3733 -1.00145e-19)
(1.32095 0.352108 9.02618e-20)
(1.29803 0.32559 -7.85852e-20)
(1.27575 0.29916 -8.10558e-20)
(1.2563 0.273959 5.90701e-20)
(1.23946 0.250264 -3.95615e-20)
(1.2248 0.228069 -5.4511e-20)
(1.21174 0.207417 -4.61317e-20)
(1.20007 0.187491 3.05127e-20)
(1.18868 0.171081 -2.12814e-21)
(0.318016 0.0635039 8.05896e-20)
(0.859465 0.237672 -1.63874e-19)
(1.18222 0.357152 -2.64414e-21)
(1.30635 0.394462 1.48105e-19)
(1.32779 0.387299 1.4966e-19)
(1.31167 0.363011 -7.73144e-20)
(1.28813 0.334515 4.96282e-20)
(1.26601 0.30672 2.88737e-20)
(1.24693 0.280481 -3.83204e-20)
(1.23052 0.255968 -3.14385e-20)
(1.21629 0.233131 3.40451e-20)
(1.20367 0.211937 3.75067e-20)
(1.19248 0.191602 -1.5598e-20)
(1.18137 0.17498 2.25201e-20)
(0.337992 0.076481 6.8029e-20)
(0.883537 0.263421 -2.99446e-20)
(1.19329 0.38074 -2.54688e-19)
(1.30511 0.412878 -9.38583e-20)
(1.31995 0.401 -2.43619e-19)
(1.30149 0.373699 6.37516e-20)
(1.27764 0.343266 3.16901e-20)
(1.25583 0.314116 4.12245e-20)
(1.23723 0.286836 3.99785e-21)
(1.2213 0.261503 3.87343e-20)
(1.20755 0.238018 -1.84746e-20)
(1.19543 0.216274 -3.09514e-21)
(1.18477 0.195561 2.68953e-21)
(1.1739 0.178715 -1.83231e-20)
(0.357123 0.0903669 -3.85269e-21)
(0.904662 0.28953 3.83577e-19)
(1.20129 0.404112 1.02804e-19)
(1.30161 0.430899 -1.11535e-19)
(1.31071 0.414363 5.36314e-20)
(1.29046 0.384136 9.70257e-20)
(1.26657 0.351809 3.22318e-20)
(1.24522 0.321314 -1.11013e-19)
(1.22718 0.292998 -7.52053e-20)
(1.2118 0.266846 7.69553e-20)
(1.19859 0.242713 -5.75738e-21)
(1.18701 0.220407 -2.77576e-20)
(1.17691 0.19935 -2.84369e-20)
(1.16635 0.182255 -9.93993e-21)
(0.375243 0.105076 -1.8849e-19)
(0.922794 0.31584 -3.646e-19)
(1.20632 0.42716 1.00662e-20)
(1.29597 0.448463 1.34814e-19)
(1.30015 0.427349 6.09225e-20)
(1.27861 0.394286 -4.38005e-20)
(1.25494 0.360107 -4.44062e-20)
(1.23418 0.328284 1.4462e-19)
(1.21677 0.298936 -1.90587e-21)
(1.20203 0.271974 -2.53516e-20)