2 	-3.93556 	-4.85723e-18 	0.101284
2 	-3.80884 	-5.55112e-18 	0.101054
2 	-3.68632 	-6.59195e-18 	0.100616
2 	-3.56788 	-4.85723e-18 	0.0999848
2 	-3.45338 	-6.245e-18 	0.0991791
2 	-3.34268 	-4.16334e-18 	0.0982108
2 	-3.23566 	1.04083e-18 	0.0970925
2 	-3.13221 	1.04083e-18 	0.0958353
2 	-3.03219 	-3.46945e-19 	0.0944493
2 	-2.93549 	-7.70372e-34 	0.0929443
2 	-2.84202 	1.73472e-18 	0.0913295
2 	-2.75164 	1.73472e-18 	0.089614
2 	-2.66428 	3.46945e-18 	0.0878064
2 	-2.57982 	5.20417e-18 	0.0859154
2 	-2.49816 	3.46945e-18 	0.0839497
2 	-2.41922 	5.20417e-18 	0.0819176
2 	-2.34291 	5.20417e-18 	0.0798275
2 	-2.26913 	1.73472e-18 	0.0776877
2 	-2.19781 	-1.73472e-18 	0.0755064
2 	-2.12886 	-5.20417e-18 	0.0732914
2 	-2.0622 	-6.93889e-18 	0.0710504
2 	-1.99775 	-6.93889e-18 	0.0687908
2 	-1.93545 	-6.93889e-18 	0.0665197
2 	-1.87522 	-6.93889e-18 	0.0642439
2 	-1.81699 	-5.20417e-18 	0.0619701
2 	-1.7607 	-3.46945e-18 	0.0597047
2 	-1.70628 	-5.20417e-18 	0.057454
2 	-1.65367 	-6.93889e-18 	0.0552237
2 	-1.60281 	-6.93889e-18 	0.0530197
2 	-1.55363 	-5.55112e-18 	0.0508473
2 	-1.5061 	-4.16334e-18 	0.048712
2 	-1.46014 	-4.16334e-18 	0.0466193
2 	-1.41571 	-2.42861e-18 	0.0445754
2 	-1.37276 	2.77556e-18 	0.0425871
2 	-1.33124 	6.245e-18 	0.0406629
2 	-1.2911 	2.77556e-18 	0.0388124
2 	-1.25229 	-6.93889e-19 	0.0370465
2 	-1.21477 	-6.93889e-19 	0.0353772
2 	-1.1785 	-2.42861e-18 	0.0338177
2 	-1.14344 	-5.55112e-18 	0.0323812
2 	-1.10954 	-6.93889e-18 	0.0310653
2 	-1.07677 	-6.93889e-18 	0.0298338
2 	-1.04437 	-8.45479e-18 	0.0286921
2 	-1.01665 	-9.49562e-18 	0.0271995
2 	-1.00013 	-9.02056e-18 	0.0283976
2 	-0.978299 	-8.67362e-18 	0.0270756
2 	-0.944575 	-6.95186e-18 	0.0259636
2 	-0.913284 	-5.21714e-18 	0.0250118
2 	-0.896078 	-4.85723e-18 	0.0259536
2 	-0.875754 	-4.85723e-18 	0.0251085
2 	-0.840661 	-4.77875e-18 	0.0244115
2 	-0.805119 	-5.84201e-18 	0.0238419
2 	-0.786234 	-5.99735e-18 	0.0233778
2 	-0.768132 	-5.97493e-18 	0.0240989
2 	-0.732715 	-6.99892e-18 	0.0236993
2 	-0.695868 	-6.49111e-18 	0.0233703
2 	-0.668107 	-3.99246e-18 	0.0230955
2 	-0.649373 	-6.83877e-19 	0.0236979
2 	-0.620939 	-1.04083e-18 	0.0234567
2 	-0.582883 	-4.44641e-18 	0.0232509
2 	-0.544452 	-4.21847e-18 	0.0230741
2 	-0.517813 	-2.02917e-18 	0.0229224
2 	-0.498333 	-5.03266e-18 	0.0234437
2 	-0.466539 	-9.71445e-18 	0.0233162
2 	-0.427095 	-1.18258e-17 	0.023212
2 	-0.387355 	-1.49356e-17 	0.0231297
2 	-0.347342 	-2.15977e-17 	0.0230682
2 	-0.317598 	-2.60917e-17 	0.0230257
2 	-0.297408 	-2.46041e-17 	0.0235118
2 	-0.266597 	-2.60209e-17 	0.0234924
2 	-0.225919 	-2.46331e-17 	0.0234869
2 	-0.185073 	-2.01228e-17 	0.0234915
2 	-0.14409 	-1.72075e-17 	0.0235026
2 	-0.102999 	-1.43102e-17 	0.0235164
2 	-0.0618307 	-1.25922e-17 	0.0235299
2 	-0.0206154 	-1.43108e-17 	0.0235408
2 	0.0206154 	-1.73465e-17 	0.0235478
2 	0.0618307 	-1.58448e-17 	0.0235508
2 	0.102999 	-1.37193e-17 	0.0235508
2 	0.14409 	-1.01547e-17 	0.0235502
2 	0.185073 	-5.20417e-18 	0.0235518
2 	0.225919 	-1.38778e-18 	0.0235591
2 	0.266597 	-1.38778e-18 	0.0235757
2 	0.297408 	-6.57824e-19 	0.0236051
2 	0.317598 	6.30105e-19 	0.0231307
2 	0.347342 	1.12717e-18 	0.0231836
2 	0.387355 	1.63105e-18 	0.0232544
2 	0.427095 	4.22043e-18 	0.0233446
2 	0.466539 	5.89806e-18 	0.0234555
2 	0.498333 	3.38468e-18 	0.0235882
2 	0.517813 	3.26567e-18 	0.0230856
2 	0.544452 	4.28168e-18 	0.0232423
2 	0.582883 	7.17624e-18 	0.0234228
2 	0.620939 	9.71445e-18 	0.0236309
2 	0.649373 	9.46591e-18 	0.0238732
2 	0.668107 	9.97373e-18 	0.0232934
2 	0.695868 	1.27643e-17 	0.0235687
2 	0.732715 	1.43382e-17 	0.0238969
2 	0.768132 	1.25669e-17 	0.0242946
2 	0.786234 	1.25445e-17 	0.0235975
2 	0.805119 	1.37604e-17 	0.0240588
2 	0.840661 	1.8987e-17 	0.0246243
2 	0.875754 	2.25514e-17 	0.0253161
2 	0.896078 	2.05297e-17 	0.0261549
2 	0.913284 	1.82616e-17 	0.0252369
2 	0.944575 	1.75077e-17 	0.026181
2 	0.978299 	1.83881e-17 	0.0272845
2 	1.00013 	1.82953e-17 	0.0285971
2 	1.01665 	1.81672e-17 	0.0274214
2 	1.04437 	1.37497e-17 	0.028904
2 	1.07677 	9.71445e-18 	0.03004
2 	1.10954 	1.11022e-17 	0.0312665
2 	1.14344 	1.04083e-17 	0.0325776
2 	1.1785 	6.59195e-18 	0.0340086
2 	1.21477 	4.85723e-18 	0.0355621
2 	1.25229 	7.97973e-18 	0.037225
2 	1.2911 	1.11022e-17 	0.0389842
2 	1.33124 	7.63278e-18 	0.040828
2 	1.37276 	4.16334e-18 	0.0427455
2 	1.41571 	4.51028e-18 	0.044727
2 	1.46014 	4.85723e-18 	0.0467642
2 	1.5061 	3.1225e-18 	0.0488504
2 	1.55363 	4.85723e-18 	0.0509793
2 	1.60281 	8.67362e-18 	0.0531454
2 	1.65367 	9.02056e-18 	0.0553435
2 	1.70628 	1.11022e-17 	0.0575679
2 	1.7607 	1.14492e-17 	0.0598131
2 	1.81699 	1.31839e-17 	0.0620731
2 	1.87522 	1.66533e-17 	0.0643417
2 	1.93545 	1.8735e-17 	0.0666125
2 	1.99775 	1.9082e-17 	0.0688789
2 	2.0622 	1.76942e-17 	0.071134
2 	2.12886 	1.45717e-17 	0.0733707
2 	2.19781 	9.02056e-18 	0.0755816
2 	2.26913 	1.00614e-17 	0.077759
2 	2.34291 	1.31839e-17 	0.0798951
2 	2.41922 	1.70003e-17 	0.0819817
2 	2.49816 	2.22045e-17 	0.0840106
2 	2.57982 	2.18575e-17 	0.0859733
2 	2.66428 	2.18575e-17 	0.0878614
2 	2.75164 	2.32453e-17 	0.0896664
2 	2.84202 	2.46331e-17 	0.0913795
2 	2.93549 	2.63678e-17 	0.092992
2 	3.03219 	2.46331e-17 	0.094495
2 	3.13221 	2.28983e-17 	0.0958792
2 	3.23566 	2.28983e-17 	0.0971348
2 	3.34268 	2.74086e-17 	0.0982516
2 	3.45338 	3.36536e-17 	0.0992187
2 	3.56788 	3.67761e-17 	0.100023
2 	3.68632 	3.98986e-17 	0.100654
2 	3.80884 	3.67761e-17 	0.101091
2 	3.93556 	3.23684e-17 	0.101321
