2 	-3.93556 	-4.85723e-18 	1.24111 	-0.00279641 	0
2 	-3.80884 	-5.55112e-18 	1.24159 	-0.00826882 	0
2 	-3.68632 	-6.59195e-18 	1.24252 	-0.0135799 	0
2 	-3.56788 	-4.85723e-18 	1.24385 	-0.0186962 	0
2 	-3.45338 	-6.245e-18 	1.24553 	-0.0236451 	0
2 	-3.34268 	-4.16334e-18 	1.24753 	-0.0284203 	0
2 	-3.23566 	1.04083e-18 	1.2498 	-0.0330297 	0
2 	-3.13221 	1.04083e-18 	1.25232 	-0.0374758 	0
2 	-3.03219 	-3.46945e-19 	1.25504 	-0.0417622 	0
2 	-2.93549 	-7.70372e-34 	1.25794 	-0.045892 	0
2 	-2.84202 	1.73472e-18 	1.26099 	-0.0498681 	0
2 	-2.75164 	1.73472e-18 	1.26416 	-0.0536934 	0
2 	-2.66428 	3.46945e-18 	1.26742 	-0.0573704 	0
2 	-2.57982 	5.20417e-18 	1.27076 	-0.0609017 	0
2 	-2.49816 	3.46945e-18 	1.27414 	-0.0642901 	0
2 	-2.41922 	5.20417e-18 	1.27755 	-0.0675383 	0
2 	-2.34291 	5.20417e-18 	1.28098 	-0.0706491 	0
2 	-2.26913 	1.73472e-18 	1.28441 	-0.073626 	0
2 	-2.19781 	-1.73472e-18 	1.28783 	-0.0764726 	0
2 	-2.12886 	-5.20417e-18 	1.29125 	-0.079193 	0
2 	-2.0622 	-6.93889e-18 	1.29465 	-0.0817909 	0
2 	-1.99775 	-6.93889e-18 	1.29805 	-0.0842695 	0
2 	-1.93545 	-6.93889e-18 	1.30142 	-0.0866307 	0
2 	-1.87522 	-6.93889e-18 	1.30474 	-0.0888751 	0
2 	-1.81699 	-5.20417e-18 	1.30798 	-0.0910026 	0
2 	-1.7607 	-3.46945e-18 	1.31109 	-0.093013 	0
2 	-1.70628 	-5.20417e-18 	1.31402 	-0.0949065 	0
2 	-1.65367 	-6.93889e-18 	1.31673 	-0.0966827 	0
2 	-1.60281 	-6.93889e-18 	1.31916 	-0.0983389 	0
2 	-1.55363 	-5.55112e-18 	1.32124 	-0.0998662 	0
2 	-1.5061 	-4.16334e-18 	1.32281 	-0.101247 	0
2 	-1.46014 	-4.16334e-18 	1.32367 	-0.102448 	0
2 	-1.41571 	-2.42861e-18 	1.32345 	-0.10342 	0
2 	-1.37276 	2.77556e-18 	1.32165 	-0.104095 	0
2 	-1.33124 	6.245e-18 	1.31762 	-0.104387 	0
2 	-1.2911 	2.77556e-18 	1.31055 	-0.104211 	0
2 	-1.25229 	-6.93889e-19 	1.29962 	-0.103492 	0
2 	-1.21477 	-6.93889e-19 	1.28409 	-0.102187 	0
2 	-1.1785 	-2.42861e-18 	1.2634 	-0.100285 	0
2 	-1.14344 	-5.55112e-18 	1.23726 	-0.0978012 	0
2 	-1.10954 	-6.93889e-18 	1.20562 	-0.0947857 	0
2 	-1.07677 	-6.93889e-18 	1.16867 	-0.0913776 	0
2 	-1.04437 	-8.45479e-18 	1.1241 	-0.0874984 	-5.9637e-21
2 	-1.01665 	-9.49562e-18 	1.0662 	-0.0818533 	-2.95206e-21
2 	-1.00013 	-9.02056e-18 	1.07525 	-0.0845048 	-3.43615e-22
2 	-0.978299 	-8.67362e-18 	1.01161 	-0.0786985 	8.93296e-21
2 	-0.944575 	-6.95186e-18 	0.941523 	-0.0727437 	-3.99449e-21
2 	-0.913284 	-5.21714e-18 	0.865777 	-0.0667913 	2.55403e-21
2 	-0.896078 	-4.85723e-18 	0.876008 	-0.0687067 	-4.62386e-22
2 	-0.875754 	-4.85723e-18 	0.795592 	-0.0626786 	-3.32031e-21
2 	-0.840661 	-4.77875e-18 	0.712268 	-0.0571353 	1.2452e-20
2 	-0.805119 	-5.84201e-18 	0.628014 	-0.0522527 	-6.98758e-21
2 	-0.786234 	-5.99735e-18 	0.544716 	-0.0481333 	2.07359e-21
2 	-0.768132 	-5.97493e-18 	0.551979 	-0.0487859 	-5.54378e-21
2 	-0.732715 	-6.99892e-18 	0.470087 	-0.0451891 	8.61904e-21
2 	-0.695868 	-6.49111e-18 	0.391999 	-0.0423801 	-2.72956e-22
2 	-0.668107 	-3.99246e-18 	0.318534 	-0.0402566 	3.84299e-21
2 	-0.649373 	-6.83877e-19 	0.322713 	-0.0403165 	3.44024e-21
2 	-0.620939 	-1.04083e-18 	0.25349 	-0.0386112 	-3.30199e-21
2 	-0.582883 	-4.44641e-18 	0.18954 	-0.0373267 	-2.16934e-21
2 	-0.544452 	-4.21847e-18 	0.130675 	-0.0362921 	-6.85207e-22
2 	-0.517813 	-2.02917e-18 	0.0765684 	-0.0353462 	-1.83409e-21
2 	-0.498333 	-5.03266e-18 	0.0788448 	-0.0351553 	3.53283e-21
2 	-0.466539 	-9.71445e-18 	0.0291074 	-0.0341369 	-1.5792e-21
2 	-0.427095 	-1.18258e-17 	-0.0164446 	-0.0329554 	-2.52486e-21
2 	-0.387355 	-1.49356e-17 	-0.0580986 	-0.031511 	-3.05937e-21
2 	-0.347342 	-2.15977e-17 	-0.0960341 	-0.02973 	-1.93019e-21
2 	-0.317598 	-2.60917e-17 	-0.130316 	-0.0275642 	-1.31548e-21
2 	-0.297408 	-2.46041e-17 	-0.12724 	-0.0274237 	1.03633e-21
2 	-0.266597 	-2.60209e-17 	-0.157496 	-0.0248643 	-1.11036e-21
2 	-0.225919 	-2.46331e-17 	-0.18394 	-0.0218995 	-8.44307e-22
2 	-0.185073 	-2.01228e-17 	-0.206411 	-0.0185504 	4.31032e-22
2 	-0.14409 	-1.72075e-17 	-0.224714 	-0.0148581 	1.82288e-21
2 	-0.102999 	-1.43102e-17 	-0.238653 	-0.0108803 	-8.76875e-22
2 	-0.0618307 	-1.25922e-17 	-0.248056 	-0.00668869 	-3.44139e-23
2 	-0.0206154 	-1.43108e-17 	-0.252794 	-0.00236472 	3.01295e-22
2 	0.0206154 	-1.73465e-17 	-0.252801 	0.00200396 	-2.4546e-22
2 	0.0618307 	-1.58448e-17 	-0.248077 	0.0063277 	-1.15446e-22
2 	0.102999 	-1.37193e-17 	-0.238689 	0.0105189 	9.07295e-22
2 	0.14409 	-1.01547e-17 	-0.224764 	0.014496 	-1.793e-21
2 	0.185073 	-5.20417e-18 	-0.206476 	0.0181874 	-3.86134e-23
2 	0.225919 	-1.38778e-18 	-0.184019 	0.0215352 	5.19902e-22
2 	0.266597 	-1.38778e-18 	-0.157589 	0.0244985 	7.14073e-22
2 	0.297408 	-6.57824e-19 	-0.127348 	0.0270562 	-7.14213e-22
2 	0.317598 	6.30105e-19 	-0.130425 	0.0272059 	1.31077e-21
2 	0.347342 	1.12717e-18 	-0.0961572 	0.0293699 	1.60299e-21
2 	0.387355 	1.63105e-18 	-0.0582355 	0.0311493 	3.75408e-21
2 	0.427095 	4.22043e-18 	-0.0165937 	0.032593 	2.02518e-21
2 	0.466539 	5.89806e-18 	0.0289491 	0.0337753 	1.00605e-21
2 	0.498333 	3.38468e-18 	0.0786816 	0.0347966 	-2.29656e-21
2 	0.517813 	3.26567e-18 	0.0763972 	0.034996 	2.35426e-21
2 	0.544452 	4.28168e-18 	0.130502 	0.035946 	-2.7241e-23
2 	0.582883 	7.17624e-18 	0.18937 	0.0369878 	3.47201e-21
2 	0.620939 	9.71445e-18 	0.253329 	0.0382826 	2.66911e-21
2 	0.649373 	9.46591e-18 	0.322568 	0.0400014 	-4.79463e-21
2 	0.668107 	9.97373e-18 	0.318366 	0.0399481 	-3.11641e-21
2 	0.695868 	1.27643e-17 	0.391846 	0.0420867 	-8.20541e-23
2 	0.732715 	1.43382e-17 	0.469951 	0.0449131 	-8.36531e-21
2 	0.768132 	1.25669e-17 	0.55186 	0.0485288 	6.02632e-21
2 	0.786234 	1.25445e-17 	0.544565 	0.0478837 	-2.11942e-21
2 	0.805119 	1.37604e-17 	0.627875 	0.0520221 	6.27624e-21
2 	0.840661 	1.8987e-17 	0.712137 	0.0569236 	-1.22227e-20
2 	0.875754 	2.25514e-17 	0.795463 	0.0624847 	3.92706e-21
2 	0.896078 	2.05297e-17 	0.875876 	0.0685291 	1.87926e-23
2 	0.913284 	1.82616e-17 	0.865614 	0.0666243 	-2.89316e-21
2 	0.944575 	1.75077e-17 	0.941355 	0.0725915 	3.97701e-21
2 	0.978299 	1.83881e-17 	1.01143 	0.078559 	-8.46266e-21
2 	1.00013 	1.82953e-17 	1.07506 	0.0843756 	-1.00636e-22
2 	1.01665 	1.81672e-17 	1.06599 	0.0817386 	3.21784e-21
2 	1.04437 	1.37497e-17 	1.12388 	0.0873922 	6.02791e-21
2 	1.07677 	9.71445e-18 	1.16844 	0.0912892 	0
2 	1.10954 	1.11022e-17 	1.20538 	0.0947092 	0
2 	1.14344 	1.04083e-17 	1.23702 	0.0977349 	0
2 	1.1785 	6.59195e-18 	1.26316 	0.100228 	0
2 	1.21477 	4.85723e-18 	1.28385 	0.10214 	0
2 	1.25229 	7.97973e-18 	1.29939 	0.103454 	0
2 	1.2911 	1.11022e-17 	1.31032 	0.10418 	0
2 	1.33124 	7.63278e-18 	1.3174 	0.104364 	0
2 	1.37276 	4.16334e-18 	1.32144 	0.104079 	0
2 	1.41571 	4.51028e-18 	1.32325 	0.10341 	0
2 	1.46014 	4.85723e-18 	1.32348 	0.102444 	0
2 	1.5061 	3.1225e-18 	1.32264 	0.101248 	0
2 	1.55363 	4.85723e-18 	1.32108 	0.0998724 	0
2 	1.60281 	8.67362e-18 	1.31902 	0.0983494 	0
2 	1.65367 	9.02056e-18 	1.3166 	0.0966973 	0
2 	1.70628 	1.11022e-17 	1.3139 	0.0949245 	0
2 	1.7607 	1.14492e-17 	1.31098 	0.0930341 	0
2 	1.81699 	1.31839e-17 	1.30788 	0.0910262 	0
2 	1.87522 	1.66533e-17 	1.30464 	0.0889008 	0
2 	1.93545 	1.8735e-17 	1.30133 	0.0866579 	0
2 	1.99775 	1.9082e-17 	1.29796 	0.0842978 	0
2 	2.0622 	1.76942e-17 	1.29458 	0.0818199 	0
2 	2.12886 	1.45717e-17 	1.29118 	0.0792224 	0
2 	2.19781 	9.02056e-18 	1.28777 	0.0765021 	0
2 	2.26913 	1.00614e-17 	1.28435 	0.0736554 	0
2 	2.34291 	1.31839e-17 	1.28093 	0.0706781 	0
2 	2.41922 	1.70003e-17 	1.2775 	0.0675667 	0
2 	2.49816 	2.22045e-17 	1.27409 	0.0643177 	0
2 	2.57982 	2.18575e-17 	1.27071 	0.0609284 	0
2 	2.66428 	2.18575e-17 	1.26738 	0.0573958 	0
2 	2.75164 	2.32453e-17 	1.26412 	0.0537175 	0
2 	2.84202 	2.46331e-17 	1.26096 	0.0498907 	0
2 	2.93549 	2.63678e-17 	1.25791 	0.045913 	0
2 	3.03219 	2.46331e-17 	1.25502 	0.0417814 	0
2 	3.13221 	2.28983e-17 	1.2523 	0.0374931 	0
2 	3.23566 	2.28983e-17 	1.24979 	0.033045 	0
2 	3.34268 	2.74086e-17 	1.24752 	0.0284335 	0
2 	3.45338 	3.36536e-17 	1.24552 	0.0236561 	0
2 	3.56788 	3.67761e-17 	1.24384 	0.0187049 	0
2 	3.68632 	3.98986e-17 	1.24251 	0.0135863 	0
2 	3.80884 	3.67761e-17 	1.24158 	0.00827269 	0
2 	3.93556 	3.23684e-17 	1.2411 	0.00279771 	0
