/*--------------------------------*- C++ -*----------------------------------*\
  =========                 |
  \\      /  F ield         | OpenFOAM: The Open Source CFD Toolbox
   \\    /   O peration     | Website:  https://openfoam.org
    \\  /    A nd           | Version:  7
     \\/     M anipulation  |
\*---------------------------------------------------------------------------*/
FoamFile
{
    version     2.0;
    format      ascii;
    class       surfaceScalarField;
    location    "20";
    object      phi;
}
// * * * * * * * * * * * * * * * * * * * * * * * * * * * * * * * * * * * * * //

dimensions      [0 3 -1 0 0 0 0];

internalField   nonuniform List<scalar> 
25237
(
-4.20916e-06
4.19863e-06
1.0529e-08
-1.45039e-05
1.02652e-05
2.95865e-08
-2.93967e-05
1.4845e-05
4.78431e-08
-4.74466e-05
1.7985e-05
6.49056e-08
-6.72976e-05
1.97704e-05
8.05345e-08
-8.77422e-05
2.035e-05
9.46766e-08
-0.000107803
1.99529e-05
1.07486e-07
-0.000126844
1.89223e-05
1.19318e-07
-0.00014463
1.76552e-05
1.30659e-07
1.6649e-05
1.42087e-07
-0.000161421
-4.13427e-06
8.3329e-06
-1.42127e-05
2.03436e-05
-2.87361e-05
2.93684e-05
-4.62462e-05
3.54951e-05
-6.53624e-05
3.88866e-05
-8.48455e-05
3.9833e-05
-0.000103678
3.87855e-05
-0.000121183
3.6427e-05
-0.000137085
3.35579e-05
3.11714e-05
-0.000151608
-3.98558e-06
1.23185e-05
-1.36337e-05
2.99917e-05
-2.74222e-05
4.31569e-05
-4.38577e-05
5.19305e-05
-6.15111e-05
5.654e-05
-7.90792e-05
5.74012e-05
-9.54659e-05
5.51721e-05
-0.000109907
5.08685e-05
-0.000122055
4.57052e-05
4.11681e-05
-0.000132051
-3.76523e-06
1.60837e-05
-1.27741e-05
3.90006e-05
-2.54695e-05
5.58523e-05
-4.03058e-05
6.67668e-05
-5.57818e-05
7.20161e-05
-7.04991e-05
7.21185e-05
-8.32428e-05
6.79158e-05
-9.31186e-05
6.07443e-05
-9.96631e-05
5.22497e-05
4.44087e-05
-0.000102904
-3.47618e-06
1.95599e-05
-1.16436e-05
4.7168e-05
-2.28982e-05
6.71069e-05
-3.56254e-05
7.94941e-05
-4.82291e-05
8.46198e-05
-5.91846e-05
8.30739e-05
-6.71189e-05
7.58501e-05
-7.09606e-05
6.4586e-05
-7.00973e-05
5.13864e-05
3.86987e-05
-6.43873e-05
-3.12201e-06
2.26819e-05
-1.02542e-05
5.43002e-05
-1.97331e-05
7.65858e-05
-2.98594e-05
8.96203e-05
-3.89201e-05
9.36805e-05
-4.5235e-05
8.93887e-05
-4.72329e-05
7.78481e-05
-4.36099e-05
6.0963e-05
-3.35741e-05
4.13505e-05
2.21394e-05
-1.70148e-05
-2.7066e-06
2.53885e-05
-8.6188e-06
6.02124e-05
-1.60016e-05
8.39687e-05
-2.30554e-05
9.66741e-05
-2.79306e-05
9.85557e-05
-2.8764e-05
9.02221e-05
-2.37493e-05
7.28335e-05
-1.12883e-05
4.85019e-05
9.89726e-06
2.0165e-05
-7.37248e-06
3.94092e-05
-2.23382e-06
2.76223e-05
-6.75061e-06
6.47291e-05
-1.17315e-05
8.89495e-05
-1.52623e-05
0.000100205
-1.53396e-05
9.8633e-05
-9.89274e-06
8.47753e-05
3.15565e-06
5.97851e-05
2.57187e-05
2.59389e-05
5.92232e-05
-1.33395e-05
-5.23529e-05
0.000104204
-1.70718e-06
2.93295e-05
-4.66185e-06
6.76838e-05
-6.94897e-06
9.12366e-05
-6.52739e-06
9.97834e-05
-1.22373e-06
9.33293e-05
1.12592e-05
7.22924e-05
3.33021e-05
3.77422e-05
6.71986e-05
-7.95763e-06
0.000114798
-6.09387e-05
-0.000114458
0.000176903
-1.12956e-06
3.04591e-05
-2.36303e-06
6.89173e-05
-1.67708e-06
9.05507e-05
3.10757e-06
9.49987e-05
1.43465e-05
8.20904e-05
3.45802e-05
5.20587e-05
6.65174e-05
5.80503e-06
0.000112884
-5.43247e-05
0.000176029
-0.000124083
-0.000195531
0.000257102
-5.03157e-07
3.09622e-05
1.39839e-07
6.82743e-05
4.06557e-06
8.66249e-05
1.3608e-05
8.54563e-05
3.1313e-05
6.43854e-05
5.99733e-05
2.33984e-05
0.000102641
-3.68629e-05
0.000162517
-0.0001142
0.000242538
-0.000204104
-0.000297321
0.000344327
1.7191e-07
3.07903e-05
2.83529e-06
6.56109e-05
1.02651e-05
7.91951e-05
2.49483e-05
7.07731e-05
4.96308e-05
3.97029e-05
8.73612e-05
-1.4332e-05
0.000141538
-9.10398e-05
0.000215857
-0.00018852
0.00031393
-0.000302177
-0.000421475
0.000438085
8.92943e-07
2.98974e-05
5.72626e-06
6.07776e-05
1.69131e-05
6.80083e-05
3.71105e-05
5.05756e-05
6.92691e-05
7.54431e-06
0.000116691
-6.17536e-05
0.000183107
-0.000157456
0.000272709
-0.000278121
0.000389862
-0.000419331
-0.000569176
0.000537563
1.66224e-06
2.82351e-05
8.80827e-06
5.36316e-05
2.40023e-05
5.28143e-05
5.00812e-05
2.44967e-05
9.02073e-05
-3.25817e-05
0.00014793
-0.000119476
0.000227287
-0.000236812
0.000332931
-0.000383766
0.000470028
-0.000556428
-0.000741843
0.000642695
2.47938e-06
2.57557e-05
1.2079e-05
4.4032e-05
3.15246e-05
3.33686e-05
6.38456e-05
-7.82436e-06
0.000112426
-8.11619e-05
0.000181059
-0.000188109
0.000274049
-0.000329803
0.000396439
-0.000506155
0.000554155
-0.000714143
-0.000940276
0.000752588
3.34396e-06
2.24118e-05
1.55334e-05
3.18425e-05
3.94658e-05
9.43619e-06
7.8378e-05
-4.67365e-05
0.000135891
-0.000138675
0.000216048
-0.000268266
0.000323387
-0.000437142
0.000463224
-0.000645993
0.000642062
-0.00089298
-0.00116481
0.000866594
4.25431e-06
1.81575e-05
1.91614e-05
1.69355e-05
4.77998e-05
-1.92022e-05
9.36301e-05
-9.25669e-05
0.000160535
-0.00020558
0.00025283
-0.00036056
0.000375274
-0.000559586
0.000533344
-0.000804063
0.000733749
-0.00109339
-0.00141528
0.000984217
5.20679e-06
1.29507e-05
2.29457e-05
-8.03472e-07
5.64827e-05
-5.27392e-05
0.000109518
-0.000145603
0.000186227
-0.000282289
0.000291247
-0.00046558
0.000429621
-0.00069796
0.000606928
-0.000981371
0.000829425
-0.00131588
-0.00169122
0.00110536
6.19545e-06
6.75523e-06
2.68604e-05
-2.14684e-05
6.54492e-05
-9.13279e-05
0.000125912
-0.000206065
0.000212743
-0.000369121
0.00033099
-0.000583827
0.000486192
-0.000853161
0.0006843
-0.00117948
0.00093008
-0.00156166
-0.00199254
0.0012314
7.21202e-06
-4.56795e-07
3.08709e-05
-4.51273e-05
7.46105e-05
-0.000135068
0.000142623
-0.000274077
0.000239732
-0.00046623
0.000371471
-0.000715566
0.000544219
-0.00102591
0.000765451
-0.00140071
0.00104085
-0.00183706
-0.00231642
0.00136472
8.24676e-06
-8.70356e-06
3.49366e-05
-7.18171e-05
8.38611e-05
-0.000183992
0.00015942
-0.000349636
0.000266712
-0.000573523
0.000411703
-0.000860557
0.000601617
-0.00121582
0.000846111
-0.00164521
0.00116454
-0.00215549
-0.00277729
0.00162541
9.2898e-06
-1.79934e-05
3.90158e-05
-0.000101543
9.30911e-05
-0.000238067
0.000176056
-0.000432601
0.00029316
-0.000690627
0.000450519
-0.00101792
0.000655506
-0.00142081
0.000917724
-0.00190742
0.00125272
-0.00249049
-0.0032046
0.00168004
1.03324e-05
-2.83258e-05
4.30708e-05
-0.000134281
0.000102203
-0.000297199
0.000192323
-0.000522721
0.000318664
-0.000816968
0.000487154
-0.0011864
0.000704542
-0.0016382
0.000978511
-0.00218139
0.00131791
-0.00282988
-0.0036132
0.00172651
1.1368e-05
-3.96938e-05
4.70715e-05
-0.000169985
0.000111118
-0.000361246
0.000208064
-0.000619667
0.000342966
-0.000951871
0.000521288
-0.00136473
0.00074871
-0.00186562
0.00103055
-0.00246323
0.00137035
-0.00316968
-0.0040072
0.00176435
1.23919e-05
-5.20857e-05
5.09948e-05
-0.000208588
0.000119779
-0.00043003
0.000223171
-0.000723059
0.000365917
-0.00109462
0.000552827
-0.00155164
0.000788325
-0.00210112
0.00107547
-0.00275038
0.00141403
-0.00350825
-0.00438927
0.00179611
1.34011e-05
-6.54868e-05
5.48225e-05
-0.000250009
0.000128138
-0.000503345
0.000237563
-0.000832484
0.000387416
-0.00124447
0.000581734
-0.00174595
0.000823628
-0.00234301
0.00111414
-0.00304089
0.00145033
-0.00384443
-0.00476099
0.00182205
1.43926e-05
-7.98794e-05
5.8538e-05
-0.000294155
0.000136155
-0.000580962
0.000251165
-0.000947494
0.00040737
-0.00140067
0.000607949
-0.00194653
0.000854703
-0.00258977
0.0011469
-0.00333309
0.00147958
-0.00417712
-0.00512271
0.0018413
1.53633e-05
-9.52427e-05
6.21231e-05
-0.000340915
0.000143782
-0.000662622
0.000263896
-0.00106761
0.000425665
-0.00156244
0.000631354
-0.00215222
0.000881476
-0.00283989
0.00117372
-0.00362533
0.00150157
-0.00450497
-0.00547391
0.00185277
1.63084e-05
-0.000111551
6.55558e-05
-0.000390162
0.000150967
-0.000748033
0.000275659
-0.0011923
0.00044216
-0.00172894
0.000651768
-0.00236183
0.000903737
-0.00309186
0.00119433
-0.00391592
0.0015158
-0.00482644
-0.00581348
0.00185537
1.72219e-05
-0.000128773
6.88088e-05
-0.000441749
0.000157646
-0.00083687
0.00028634
-0.00132099
0.000456679
-0.00189928
0.000668956
-0.00257411
0.000921193
-0.0033441
0.00120836
-0.00420308
0.0015217
-0.00513978
-0.00613996
0.00184818
1.80954e-05
-0.000146868
7.18495e-05
-0.000495503
0.000163743
-0.000928764
0.000295806
-0.00145305
0.000469023
-0.0020725
0.000682651
-0.00278774
0.00093351
-0.00359495
0.00121539
-0.00448496
0.00151875
-0.00544314
-0.00645171
0.0018305
1.89192e-05
-0.000165788
7.46398e-05
-0.000551224
0.000169176
-0.0010233
0.000303913
-0.00158779
0.000478979
-0.00224757
0.000692573
-0.00300133
0.000940353
-0.00384273
0.00121506
-0.00475968
0.00150654
-0.00573462
-0.00674705
0.00180188
1.96818e-05
-0.000185469
7.71379e-05
-0.00060868
0.000173854
-0.00112002
0.000310511
-0.00172445
0.000486331
-0.00242339
0.000698449
-0.00321345
0.00094142
-0.0040857
0.00120707
-0.00502533
0.00148482
-0.00601237
-0.00702437
0.00176215
2.03709e-05
-0.00020584
7.92994e-05
-0.000667608
0.000177685
-0.0012184
0.000315448
-0.00186221
0.000490873
-0.00259881
0.000700038
-0.00342261
0.000936468
-0.00432214
0.00119122
-0.00528008
0.0014535
-0.00627465
-0.00728223
0.00171135
2.09733e-05
-0.000226814
8.10789e-05
-0.000727714
0.000180576
-0.0013179
0.00031858
-0.00200021
0.000492417
-0.00277265
0.000697135
-0.00362733
0.000925326
-0.00455033
0.00116744
-0.0055222
0.00141265
-0.00651986
-0.00751934
0.00164977
2.14759e-05
-0.000248289
8.24315e-05
-0.000788669
0.000182441
-0.00141791
0.000319778
-0.00213755
0.000490805
-0.00294368
0.000689591
-0.00382612
0.000907907
-0.00476864
0.00113577
-0.00575007
0.00136252
-0.00674661
-0.00773469
0.00157787
2.18657e-05
-0.000270155
8.33146e-05
-0.000850118
0.000183198
-0.00151779
0.000318927
-0.00227328
0.000485915
-0.00311066
0.000677316
-0.00401752
0.000884216
-0.00497554
0.00109638
-0.00596223
0.00130348
-0.00695371
-0.00792747
0.00149627
2.21303e-05
-0.000292285
8.36894e-05
-0.000911677
0.000182778
-0.00161688
0.000315937
-0.00240644
0.000477662
-0.00327239
0.000660283
-0.00420014
0.000854341
-0.0051696
0.00104953
-0.00615742
0.00123603
-0.00714021
-0.00809715
0.00140571
2.22583e-05
-0.000314544
8.35214e-05
-0.00097294
0.000181124
-0.00171448
0.000310744
-0.00253606
0.000466009
-0.00342765
0.000638528
-0.00437266
0.000818457
-0.00534953
0.000995588
-0.00633455
0.00116076
-0.00730539
-0.0082434
0.00130701
2.22399e-05
-0.000336784
8.27821e-05
-0.00103348
0.000178192
-0.00180989
0.00030331
-0.00266118
0.000450961
-0.0035753
0.000612154
-0.00453385
0.000776813
-0.00551419
0.000934999
-0.00649274
0.00107833
-0.00744872
-0.00836611
0.00120103
2.20664e-05
-0.00035885
8.14497e-05
-0.00109287
0.000173956
-0.0019024
0.000293626
-0.00278085
0.000432567
-0.00371425
0.000581316
-0.0046826
0.000729724
-0.0056626
0.00086827
-0.00663128
0.000989443
-0.00756989
-0.00846534
0.00108867
2.17311e-05
-0.000380581
7.95091e-05
-0.00115064
0.000168404
-0.00199129
0.000281712
-0.00289416
0.00041092
-0.00384345
0.000546228
-0.00481791
0.000677566
-0.00579393
0.000795961
-0.00674968
0.000894844
-0.00766877
-0.0085413
0.000970812
2.12292e-05
-0.00040181
7.69529e-05
-0.00120637
0.000161542
-0.00207588
0.000267617
-0.00300023
0.000386153
-0.00396199
0.000507148
-0.0049389
0.000620756
-0.00590754
0.000718659
-0.00684758
0.000795275
-0.00774539
-0.00859435
0.000848324
2.05579e-05
-0.000422368
7.37815e-05
-0.00125959
0.000153393
-0.0021555
0.000251418
-0.00309826
0.000358434
-0.00406901
0.000464376
-0.00504484
0.000559747
-0.00600291
0.000636973
-0.00692481
0.000691474
-0.00779989
-0.00862492
0.000722043
1.97166e-05
-0.000442085
7.00031e-05
-0.00130988
0.000143994
-0.00222949
0.000233214
-0.00318748
0.000327964
-0.00416376
0.000418244
-0.00513512
0.000495019
-0.00607969
0.000551519
-0.00698131
0.000584166
-0.00783254
-0.00863351
0.000592757
1.87068e-05
-0.000460792
6.56332e-05
-0.0013568
0.0001334
-0.00229725
0.00021313
-0.00326721
0.00029497
-0.0042456
0.00036911
-0.00520926
0.000427067
-0.00613764
0.000462913
-0.00701715
0.000474047
-0.00784367
-0.00862067
0.000461204
1.75321e-05
-0.000478324
6.0695e-05
-0.00139997
0.000121678
-0.00235824
0.00019131
-0.00333684
0.000259705
-0.00431399
0.000317353
-0.00526691
0.000356395
-0.00617669
0.000371759
-0.00703252
0.000361781
-0.00783369
-0.00858695
0.000328066
1.61982e-05
-0.000494522
5.5218e-05
-0.00143899
0.000108907
-0.00241193
0.000167914
-0.00339585
0.000222438
-0.00436851
0.000263366
-0.00530784
0.000283515
-0.00619684
0.000278655
-0.00702766
0.000247989
-0.00780303
-0.0085329
0.000193939
1.47127e-05
-0.000509235
4.92384e-05
-0.00147351
9.51809e-05
-0.00245787
0.00014312
-0.00344378
0.000183451
-0.00440885
0.000207549
-0.00533194
0.000208938
-0.00619822
0.000184214
-0.00700293
0.000133286
-0.0077521
-0.00845842
5.88023e-05
1.30851e-05
-0.00052232
4.27975e-05
-0.00150322
8.0598e-05
-0.00249567
0.000117111
-0.0034803
0.000143037
-0.00443477
0.000150303
-0.0053392
0.00013316
-0.00618108
8.90199e-05
-0.00695879
1.88307e-05
-0.00768191
-0.00836446
-7.5127e-05
1.13264e-05
-0.000533646
3.59411e-05
-0.00152784
6.52662e-05
-0.00252499
9.00818e-05
-0.00350511
0.000101489
-0.00444618
9.20259e-05
-0.00532974
5.6664e-05
-0.00614572
-6.51904e-06
-0.00689561
-9.61859e-05
-0.00759224
-0.00825265
-0.000208
9.44916e-06
-0.000543095
2.87191e-05
-0.00154711
4.92978e-05
-0.00254557
6.22289e-05
-0.00351804
5.91019e-05
-0.00444305
3.31127e-05
-0.00530375
-2.00695e-05
-0.00609254
-0.000101742
-0.00681393
-0.000210081
-0.00748391
-0.00812259
-0.000340139
7.46713e-06
-0.000550562
2.11837e-05
-0.00156083
3.2808e-05
-0.0025572
3.37491e-05
-0.00351898
1.61677e-05
-0.00442547
-2.60575e-05
-0.00526153
-9.65809e-05
-0.00602201
-0.000196185
-0.00671433
-0.000322675
-0.00735742
-0.00797459
-0.000470678
5.39534e-06
-0.000555958
1.33892e-05
-0.00156882
1.59125e-05
-0.00255972
4.84367e-06
-0.00350792
-2.70415e-05
-0.00439359
-8.51239e-05
-0.00520344
-0.000172427
-0.00593471
-0.000289334
-0.00659742
-0.00043349
-0.00721326
-0.00780892
-0.000599162
3.25223e-06
-0.00055921
5.39019e-06
-0.00157096
-1.26574e-06
-0.00255306
-2.43221e-05
-0.00348486
-7.02592e-05
-0.00434765
-0.000143742
-0.00512996
-0.000247188
-0.00583127
-0.000380696
-0.00646392
-0.000542014
-0.00705194
-0.00762576
-0.000725169
1.03978e-06
-0.00056025
-2.7625e-06
-0.00156716
-1.86435e-05
-0.00253718
-5.35519e-05
-0.00344995
-0.000113238
-0.00428796
-0.000201601
-0.0050416
-0.000320479
-0.00571239
-0.000469791
-0.0063146
-0.00064771
-0.00687402
-0.00742515
-0.000848316
-1.24134e-06
-0.000559008
-1.10158e-05
-0.00155738
-3.60844e-05
-0.00251211
-8.26833e-05
-0.00340335
-0.000155757
-0.00421489
-0.000258428
-0.00493893
-0.000391957
-0.00557886
-0.000556163
-0.0061504
-0.00075003
-0.00668016
-0.00720694
-0.00096825
-3.51282e-06
-0.000555496
-1.93106e-05
-0.00154158
-5.34976e-05
-0.00247793
-0.000111564
-0.00334529
-0.000197619
-0.00412883
-0.000313991
-0.00482256
-0.000461339
-0.00543151
-0.000639404
-0.00597233
-0.000848339
-0.00647122
-0.00697093
-0.00108434
-5.81417e-06
-0.000549681
-2.7602e-05
-0.0015198
-7.07866e-05
-0.00243474
-0.000140053
-0.00327602
-0.000238653
-0.00403023
-0.000368104
-0.00469311
-0.000528422
-0.00527119
-0.000719172
-0.00578158
-0.000941639
-0.00624875
-0.00671649
-0.00119608
-8.11845e-06
-0.000541563
-3.58414e-05
-0.00149207
-8.78605e-05
-0.00238272
-0.000168022
-0.00319586
-0.00027871
-0.00391954
-0.000420634
-0.00455118
-0.000593128
-0.0050987
-0.000795297
-0.00557941
-0.00102931
-0.00601475
-0.00644089
-0.00130491
-1.04097e-05
-0.000531153
-4.39813e-05
-0.0014585
-0.000104633
-0.00232207
-0.000195349
-0.00310514
-0.000317655
-0.00379724
-0.000471489
-0.00439735
-0.000655554
-0.00491463
-0.000868038
-0.00536693
-0.00110583
-0.00577695
-0.00617143
-0.00137529
-1.26737e-05
-0.00051848
-5.19762e-05
-0.0014192
-0.00012102
-0.00225303
-0.000221917
-0.00300424
-0.000355352
-0.0036638
-0.000520551
-0.00423215
-0.000715679
-0.00471951
-0.000938507
-0.0051441
-0.00118665
-0.00552881
-0.0058961
-0.00146198
-1.48965e-05
-0.000503583
-5.97828e-05
-0.00137431
-0.000136942
-0.00217587
-0.000247612
-0.00289357
-0.000391656
-0.00351976
-0.000567632
-0.00405617
-0.00077323
-0.00451391
-0.00100592
-0.00491141
-0.00126345
-0.00527127
-0.00561417
-0.00154539
-1.70649e-05
-0.000486518
-6.73602e-05
-0.00132402
-0.000152326
-0.0020909
-0.000272329
-0.00277357
-0.000426435
-0.00336565
-0.000612567
-0.00387004
-0.000827968
-0.00429851
-0.00106982
-0.00466956
-0.00133575
-0.00500534
-0.00532535
-0.00162457
-1.91669e-05
-0.000467351
-7.46708e-05
-0.00126851
-0.000167105
-0.00199847
-0.000295977
-0.0026447
-0.000459581
-0.00320205
-0.000655239
-0.00367438
-0.000879783
-0.00407396
-0.00113014
-0.0044192
-0.00140384
-0.00473164
-0.00502985
-0.00169934
-2.11909e-05
-0.00044616
-8.16801e-05
-0.00120802
-0.00018122
-0.00189893
-0.000318475
-0.00250745
-0.000491006
-0.00302952
-0.000695565
-0.00346982
-0.000928618
-0.00384091
-0.00118689
-0.00416093
-0.00146784
-0.0044507
-0.00472787
-0.00176982
-2.31267e-05
-0.000423034
-8.83571e-05
-0.00114279
-0.000194616
-0.00179267
-0.000339756
-0.0023623
-0.000520635
-0.00284864
-0.000733483
-0.00325698
-0.000974437
-0.00359996
-0.00124007
-0.0038953
-0.00152782
-0.00416294
-0.00441963
-0.00183606
-2.49647e-05
-0.000398069
-9.46736e-05
-0.00107308
-0.000207248
-0.0016801
-0.00035976
-0.00220979
-0.000548408
-0.00265999
-0.000768942
-0.00303644
-0.00101721
-0.00335168
-0.00128968
-0.00362283
-0.00158381
-0.00386881
-0.00410538
-0.00189806
-2.66963e-05
-0.000371373
-0.000100605
-0.000999177
-0.000219072
-0.00156163
-0.000378434
-0.00205043
-0.000574271
-0.00246415
-0.000801898
-0.00280882
-0.00105692
-0.00309666
-0.00133572
-0.00334403
-0.00163581
-0.00356872
-0.0037854
-0.00195579
-2.83136e-05
-0.000343059
-0.000106127
-0.000921363
-0.000230053
-0.0014377
-0.000395732
-0.00188475
-0.000598177
-0.00226171
-0.000832309
-0.00257468
-0.00109352
-0.00283545
-0.00137815
-0.0030594
-0.00168379
-0.00326308
-0.00346002
-0.00200917
-2.98092e-05
-0.00031325
-0.00011122
-0.000839953
-0.000240155
-0.00130877
-0.000411611
-0.00171329
-0.000620083
-0.00205324
-0.000860139
-0.00233463
-0.00112699
-0.0025686
-0.00141696
-0.00276943
-0.00172771
-0.00295233
-0.0031296
-0.00205813
-3.11767e-05
-0.000282073
-0.000115864
-0.000755265
-0.000249348
-0.00117528
-0.000426035
-0.00153661
-0.00063995
-0.00183932
-0.000885349
-0.00208923
-0.0011573
-0.00229665
-0.0014521
-0.00247463
-0.00176752
-0.00263691
-0.00279455
-0.00210257
-3.241e-05
-0.000249663
-0.000120044
-0.000667632
-0.000257605
-0.00103772
-0.000438968
-0.00135524
-0.00065774
-0.00162055
-0.000907905
-0.00183906
-0.0011844
-0.00202015
-0.00148354
-0.0021755
-0.00180315
-0.0023173
-0.00245529
-0.0021424
-3.35037e-05
-0.000216159
-0.000123743
-0.000577393
-0.0002649
-0.000896566
-0.00045038
-0.00116976
-0.000673421
-0.00139751
-0.000927774
-0.00158471
-0.00120827
-0.00173965
-0.00151123
-0.00187255
-0.00183455
-0.00199397
-0.00211231
-0.00217753
-3.44528e-05
-0.000181707
-0.000126947
-0.000484898
-0.000271212
-0.000752301
-0.000460242
-0.000980734
-0.000686962
-0.00117079
-0.000944924
-0.00132675
-0.00122888
-0.00145569
-0.00153513
-0.00156629
-0.00186168
-0.00166743
-0.00176611
-0.00220788
-3.5253e-05
-0.000146454
-0.000129645
-0.000390507
-0.000276519
-0.000605427
-0.000468528
-0.000788725
-0.000698333
-0.000940984
-0.000959326
-0.00106576
-0.00124619
-0.00116883
-0.00155523
-0.00125725
-0.00188449
-0.00133817
-0.00141719
-0.00223341
-3.59005e-05
-0.000110553
-0.000131825
-0.000294583
-0.000280805
-0.000456446
-0.000475216
-0.000594315
-0.000707511
-0.000708689
-0.000970953
-0.000802314
-0.00126017
-0.000879611
-0.00157149
-0.000945927
-0.00190297
-0.00100668
-0.00106609
-0.00225407
-3.63922e-05
-7.41609e-05
-0.000133479
-0.000197496
-0.000284055
-0.00030587
-0.000480286
-0.000398084
-0.00071447
-0.000474504
-0.000979779
-0.000537005
-0.00127081
-0.000588581
-0.00158389
-0.000632845
-0.00191711
-0.000673467
-0.000713301
-0.0022699
-3.67254e-05
-3.74355e-05
-0.000134599
-9.9623e-05
-0.000286255
-0.000154214
-0.00048372
-0.000200618
-0.00071919
-0.000239034
-0.000985778
-0.000270417
-0.00127807
-0.000296292
-0.00159241
-0.000318506
-0.0019269
-0.000338976
-0.000359278
-0.00228092
-3.68982e-05
-5.37353e-07
-0.000135179
-1.34233e-06
-0.000287396
-1.99706e-06
-0.000485505
-2.5094e-06
-0.000721652
-2.88695e-06
-0.000988925
-3.14388e-06
-0.00128191
-3.30673e-06
-0.00159699
-3.42501e-06
-0.00193237
-3.59795e-06
-4.00103e-06
-0.00228765
-3.69093e-05
3.63719e-05
-0.000135216
9.69643e-05
-0.000287471
0.000150258
-0.000485629
0.000195649
-0.000721839
0.000233323
-0.000989195
0.000264212
-0.0012823
0.000289795
-0.00159756
0.000311836
-0.00193327
0.000332113
0.00035201
-0.00228928
-3.67582e-05
7.31301e-05
-0.000134708
0.000194914
-0.000286477
0.000302027
-0.000484088
0.00039326
-0.000719743
0.000468978
-0.000986571
0.00053104
-0.00127919
0.000582413
-0.00159402
0.000626666
-0.00192933
0.000667423
0.000707543
-0.00228486
-3.64453e-05
0.000109575
-0.000133656
0.000292125
-0.000284415
0.000452785
-0.000480881
0.000589726
-0.00071536
0.000703457
-0.000981044
0.000796724
-0.00127258
0.000873944
-0.00158636
0.00094045
-0.00192061
0.00100168
0.0010619
-0.00227497
-3.59718e-05
0.000145547
-0.000132064
0.000388217
-0.000281288
0.00060201
-0.000476013
0.000784451
-0.000708696
0.00093614
-0.000972621
0.00106065
-0.00126246
0.00116378
-0.0015746
0.00125259
-0.00190719
0.00133426
0.00141446
-0.00225975
-3.53396e-05
0.000180887
-0.000129935
0.000482813
-0.000277107
0.000749182
-0.000469495
0.000976838
-0.000699762
0.00116641
-0.000961318
0.00132221
-0.00124887
0.00145134
-0.00155879
0.0015625
-0.00188913
0.00166461
0.00176467
-0.00223934
-3.45515e-05
0.000215438
-0.000127279
0.000575541
-0.000271884
0.000893786
-0.000461344
0.0011663
-0.000688581
0.00139364
-0.000947157
0.00158078
-0.00123184
0.00173603
-0.00153897
0.00186963
-0.00186653
0.00199216
0.00211198
-0.00221384
-3.36112e-05
0.00024905
-0.000124106
0.000666036
-0.000265635
0.00103532
-0.000451582
0.00135224
-0.000675176
0.00161724
-0.000930171
0.00183578
-0.00121141
0.00201727
-0.0015152
0.00217342
-0.00183945
0.00231641
0.00245591
-0.00218337
-3.2523e-05
0.000281573
-0.000120427
0.00075394
-0.000258381
0.00117327
-0.000440235
0.0015341
-0.00065958
0.00183658
-0.000910396
0.00208659
-0.00118762
0.00229449
-0.00148754
0.00247334
-0.00180798
0.00263685
0.00279596
-0.00214804
-3.1292e-05
0.000312865
-0.000116257
0.000838905
-0.000250145
0.00130716
-0.000427333
0.00171129
-0.000641827
0.00205108
-0.000887871
0.00233264
-0.00116052
0.00256714
-0.00145606
0.00276888
-0.00177221
0.002953
0.0031317
-0.00210795
-2.99239e-05
0.000342788
-0.000111613
0.000920594
-0.000240953
0.0014365
-0.000412912
0.00188325
-0.000621957
0.00226012
-0.00086264
0.00257332
-0.00113016
0.00283466
-0.0014208
0.00305952
-0.00173221
0.00326441
0.00346271
-0.00206323
-2.84251e-05
0.000371214
-0.000106512
0.000998681
-0.000230837
0.00156082
-0.000397008
0.00204942
-0.000600012
0.00246313
-0.000834745
0.00280805
-0.00109658
0.00309649
-0.00138183
0.00334478
-0.00168806
0.00357064
0.00378862
-0.00201396
-2.68026e-05
0.000398016
-0.000100974
0.00107285
-0.000219828
0.00167968
-0.000379665
0.00220925
-0.000576038
0.0026595
-0.000804233
0.00303625
-0.00105983
0.00335209
-0.00133919
0.00362414
-0.00163981
0.00387126
0.00410907
-0.00196027
-2.50641e-05
0.00042308
-9.5022e-05
0.00114281
-0.000207963
0.00179262
-0.000360928
0.00236222
-0.000550082
0.00284866
-0.000771147
0.00325731
-0.00101995
0.00360089
-0.00129293
0.00389712
-0.00158753
0.00416586
0.00442376
-0.00190222
-2.32178e-05
0.000446298
-8.86797e-05
0.00120827
-0.000195282
0.00189922
-0.000340847
0.00250778
-0.000522198
0.00303001
-0.000735537
0.00347065
-0.000976972
0.00384233
-0.00124306
0.0041632
-0.00153123
0.00445404
0.00473241
-0.00183988
-2.12728e-05
0.000467571
-8.19736e-05
0.00126897
-0.00018183
0.00199907
-0.000319477
0.00264543
-0.000492443
0.00320297
-0.000697451
0.00367566
-0.000930935
0.00407581
-0.00118961
0.00442187
-0.00147092
0.00473535
0.00503476
-0.00177327
-1.92391e-05
0.00048681
-7.49331e-05
0.00132467
-0.000167655
0.0020918
-0.000296884
0.00277466
-0.000460885
0.00336697
-0.000656946
0.00387172
-0.000881871
0.00430074
-0.00113257
0.00467257
-0.00140657
0.00500935
0.00533059
-0.0017024
-1.71273e-05
0.000503937
-6.75903e-05
0.00137513
-0.000152813
0.00217702
-0.000273137
0.00289498
-0.0004276
0.00352144
-0.00061409
0.00405821
-0.000829823
0.00451647
-0.00107196
0.00491471
-0.00133813
0.00527552
0.00561966
-0.0016272
-1.49489e-05
0.000518886
-5.99804e-05
0.00142016
-0.000137365
0.0022544
-0.00024832
0.00300594
-0.00039268
0.0036658
-0.000568972
0.0042345
-0.000774852
0.00472235
-0.00100776
0.00514762
-0.00126545
0.00553321
0.00590175
-0.00154753
-1.27166e-05
0.000531603
-5.21419e-05
0.00145959
-0.00012138
0.00232364
-0.000222526
0.00310709
-0.000356239
0.00379951
-0.000521712
0.00439997
-0.000717078
0.00491771
-0.000940074
0.00537062
-0.00118829
0.00578142
0.00617707
-0.00146361
-1.04435e-05
0.000542046
-4.41162e-05
0.00149326
-0.000104932
0.00238446
-0.000195863
0.00319802
-0.00031841
0.00392206
-0.000472481
0.00455405
-0.000656745
0.00510198
-0.000869346
0.00558322
-0.00110714
0.00601921
0.00644602
-0.00137609
-8.14378e-06
0.00055019
-3.59473e-05
0.00152106
-8.81019e-05
0.00243661
-0.000168444
0.00327836
-0.000279339
0.00403295
-0.000421467
0.00469617
-0.000594132
0.00527464
-0.000796398
0.00578548
-0.00103037
0.00625318
0.00672137
-0.00130571
-5.83165e-06
0.000556022
-2.76807e-05
0.00154291
-7.09733e-05
0.0024799
-0.000140389
0.00334777
-0.000239162
0.00413172
-0.000368787
0.0048258
-0.000529251
0.00543511
-0.000720081
0.00597631
-0.000942503
0.0064756
0.0069755
-0.00119664
-3.52314e-06
0.000559545
-1.93641e-05
0.00155875
-5.36332e-05
0.00251417
-0.000111818
0.00340596
-0.000198016
0.00421792
-0.000314532
0.00494232
-0.000461999
0.00558257
-0.000640119
0.00615443
-0.000848983
0.00668447
0.00721123
-0.00108471
-1.24521e-06
0.00056079
-1.10462e-05
0.00156855
-3.61728e-05
0.0025393
-8.28614e-05
0.00345265
-0.000156047
0.00429111
-0.000258835
0.0050451
-0.000392455
0.00571619
-0.000556692
0.00631867
-0.000750472
0.00687825
0.00742921
-0.000968445
1.0417e-06
0.000559748
-2.77195e-06
0.00157237
-1.86884e-05
0.00255522
-5.36596e-05
0.00348762
-0.00011343
0.00435088
-0.000201881
0.00513355
-0.000320826
0.00583514
-0.000470147
0.00646799
-0.000647973
0.00705607
0.00762959
-0.000848359
3.25923e-06
0.000556489
5.39952e-06
0.00157023
-1.27116e-06
0.00256189
-2.4365e-05
0.00351071
-7.0359e-05
0.00439687
-0.000143904
0.0052071
-0.000247394
0.00593863
-0.000380894
0.00660149
-0.000542118
0.0072173
0.00781256
-0.000725085
5.40675e-06
0.000551082
1.34152e-05
0.00156222
1.59426e-05
0.00255936
4.85962e-06
0.00352179
-2.7057e-05
0.00442879
-8.51773e-05
0.00526522
-0.000172503
0.00602595
-0.00028939
0.00671838
-0.000433457
0.00736137
0.00797807
-0.000598972
7.48231e-06
0.0005436
2.12243e-05
0.00154848
3.28697e-05
0.00254771
3.38182e-05
0.00352085
1.62286e-05
0.00444638
-2.6012e-05
0.00530746
-9.65403e-05
0.00609648
-0.000196115
0.00681795
-0.000322522
0.00748777
0.00812595
-0.000470399
9.46751e-06
0.000534133
2.87723e-05
0.00152917
4.93872e-05
0.0025271
6.23452e-05
0.00350789
5.92316e-05
0.00444949
3.32475e-05
0.00533344
-1.99237e-05
0.00614965
-0.000101561
0.00689959
-0.000209825
0.00759604
0.00825591
-0.000339784
1.13473e-05
0.000522785
3.60049e-05
0.00150451
6.53795e-05
0.00249773
9.02396e-05
0.00348303
0.00010168
0.00443805
9.22405e-05
0.00534288
5.69035e-05
0.00618499
-6.23964e-06
0.00696273
-9.58395e-05
0.00768564
0.00836765
-0.00020758
1.31081e-05
0.000509677
4.28699e-05
0.00147475
8.07316e-05
0.00245986
0.000117305
0.00344646
0.000143281
0.00441208
0.000150588
0.00533558
0.000133483
0.0062021
8.93863e-05
0.00700683
1.92463e-05
0.00775578
0.00846155
-7.46549e-05
1.47372e-05
0.00049494
4.93179e-05
0.00144017
9.53314e-05
0.00241385
0.000143344
0.00339844
0.000183742
0.00437168
0.000207896
0.00531142
0.000209334
0.00620066
0.000184658
0.00703151
0.00013378
0.00780665
0.008536
5.93361e-05
1.62238e-05
0.000478716
5.53029e-05
0.00140109
0.000109072
0.00236008
0.000168164
0.00333935
0.000222768
0.00431707
0.000263767
0.00527042
0.000283976
0.00618045
0.000279167
0.00703632
0.000248545
0.00783728
0.00859002
0.000194518
1.75584e-05
0.000461158
6.07837e-05
0.00135787
0.000121852
0.00229901
0.00019158
0.00326962
0.000260069
0.00424858
0.0003178
0.00521269
0.000356912
0.00614134
0.000372331
0.0070209
0.000362393
0.00784722
0.00862372
0.000328691
1.87334e-05
0.000442424
6.57245e-05
0.00131088
0.000133582
0.00223116
0.000213416
0.00318979
0.000295361
0.00416664
0.000369596
0.00513846
0.000427631
0.0060833
0.000463537
0.00698499
0.000474709
0.00783604
0.00863656
0.000461873
1.97432e-05
0.000422681
7.00957e-05
0.00126052
0.000144182
0.00215707
0.000233512
0.00310046
0.000328376
0.00407178
0.000418761
0.00504807
0.000495624
0.00600644
0.00055219
0.00692842
0.000584875
0.00780336
0.00862797
0.000593468
2.05841e-05
0.000402097
7.38743e-05
0.00120723
0.000153583
0.00207736
0.000251724
0.00300232
0.000358862
0.00396464
0.000464919
0.00494202
0.000560387
0.00591097
0.000637684
0.00685113
0.000692226
0.00774882
0.0085974
0.000722793
2.12548e-05
0.000380842
7.70449e-05
0.00115144
0.000161733
0.00199267
0.000267928
0.00289612
0.000386592
0.00384597
0.00050771
0.0048209
0.000621424
0.00579726
0.000719405
0.00675315
0.000796064
0.00767216
0.00854435
0.000849113
2.1756e-05
0.000359086
7.95994e-05
0.0010936
0.000168594
0.00190368
0.000282024
0.00278269
0.000411366
0.00371663
0.000546804
0.00468546
0.000678256
0.00566581
0.000796737
0.00663466
0.000895668
0.00757323
0.00846838
0.000971638
2.20903e-05
0.000336996
8.15377e-05
0.00103415
0.000174142
0.00181107
0.000293936
0.0026629
0.000433014
0.00357755
0.0005819
0.00453657
0.000730431
0.00551728
0.000869071
0.00649603
0.000990298
0.007452
0.00836915
0.00108953
2.22627e-05
0.000314733
8.28671e-05
0.000973548
0.000178374
0.00171557
0.000303616
0.00253766
0.000451407
0.00342976
0.000612742
0.00437524
0.00077753
0.00535249
0.000935818
0.00633774
0.00107921
0.00730861
0.00824643
0.00120193
2.228e-05
0.000292453
8.36029e-05
0.000912225
0.0001813
0.00161787
0.000311044
0.00240791
0.00046645