/*--------------------------------*- C++ -*----------------------------------*\
  =========                 |
  \\      /  F ield         | OpenFOAM: The Open Source CFD Toolbox
   \\    /   O peration     | Website:  https://openfoam.org
    \\  /    A nd           | Version:  7
     \\/     M anipulation  |
\*---------------------------------------------------------------------------*/
FoamFile
{
    version     2.0;
    format      ascii;
    class       volVectorField;
    location    "20";
    object      U;
}
// * * * * * * * * * * * * * * * * * * * * * * * * * * * * * * * * * * * * * //

dimensions      [0 1 -1 0 0 0 0];

internalField   nonuniform List<vector> 
12772
(
(-0.00075111 0.000594919 1.85857e-21)
(-0.00382701 0.00130544 7.25172e-21)
(-0.00931016 0.00166641 -2.84642e-21)
(-0.0155159 0.00177078 2.10719e-21)
(-0.0217243 0.00168753 -1.60768e-20)
(-0.0274108 0.00147902 -7.16635e-21)
(-0.0322135 0.00120202 -1.58453e-21)
(-0.0359761 0.000908399 -2.37384e-20)
(-0.0387132 0.000639191 3.15629e-21)
(-0.0404546 0.000431499 1.50093e-20)
(-0.000834207 0.00177784 -1.7004e-20)
(-0.00396722 0.00390097 -3.87237e-21)
(-0.00939136 0.00498019 1.22079e-20)
(-0.0154522 0.00529237 -4.80337e-20)
(-0.021442 0.00504359 -6.25128e-21)
(-0.0268464 0.00442034 9.58418e-21)
(-0.031312 0.00359267 3.59242e-21)
(-0.0346921 0.00271638 6.59193e-20)
(-0.0370101 0.00191539 -4.84787e-20)
(-0.0382484 0.00130433 7.99896e-21)
(-0.00099714 0.00292201 3.27628e-20)
(-0.00423981 0.00640344 -4.97256e-21)
(-0.00954303 0.00816641 2.10314e-20)
(-0.015312 0.00866545 4.92814e-20)
(-0.0208637 0.00824075 1.05221e-19)
(-0.0257037 0.00720048 -7.90035e-20)
(-0.0294948 0.00582645 2.84357e-22)
(-0.0321101 0.0043778 -6.40034e-20)
(-0.0335906 0.00306306 8.31715e-20)
(-0.0338223 0.00208358 -7.96074e-20)
(-0.00123322 0.00400263 3.80726e-21)
(-0.0046286 0.0087531 -3.00635e-21)
(-0.00974297 0.0111431 2.36434e-20)
(-0.0150694 0.0117946 -3.55932e-20)
(-0.0199612 0.011177 -2.80162e-20)
(-0.0239533 0.00971621 1.3903e-19)
(-0.0267329 0.007803 -4.42137e-20)
(-0.0282016 0.00579911 -1.29588e-19)
(-0.0284292 0.00400025 -4.34861e-20)
(-0.0271493 0.00270984 5.89506e-20)
(-0.00153261 0.00499636 6.40245e-21)
(-0.00510967 0.0108935 2.94136e-20)
(-0.0099581 0.0138327 -6.5941e-20)
(-0.0146853 0.0145898 8.11512e-20)
(-0.0186919 0.0137565 5.5528e-20)
(-0.0215516 0.0118707 -2.14941e-19)
(-0.0229826 0.00942858 1.87795e-19)
(-0.0229237 0.00689315 1.15443e-19)
(-0.0214872 0.00465108 4.03548e-20)
(-0.0181893 0.00313266 -1.29497e-20)
(-0.00188253 0.00588187 -4.64606e-20)
(-0.00565166 0.0127727 -2.27641e-20)
(-0.0101448 0.0161638 2.06728e-20)
(-0.014108 0.0169684 -1.80188e-19)
(-0.0169993 0.0158916 9.13465e-20)
(-0.0184397 0.0135762 -2.43189e-20)
(-0.0181849 0.0106187 1.4645e-21)
(-0.0162179 0.00758091 2.20363e-20)
(-0.0127102 0.00494404 -5.07524e-20)
(-0.00689548 0.00332401 -2.84127e-20)
(-0.00226749 0.00664016 1.03203e-19)
(-0.00621625 0.0143442 -1.28579e-20)
(-0.0102492 0.0180729 8.2497e-20)
(-0.013273 0.0188569 2.90156e-20)
(-0.0148126 0.0175054 -2.58936e-20)
(-0.0145439 0.0147568 -2.1896e-20)
(-0.0122662 0.0113011 -1.55045e-20)
(-0.00801166 0.00779384 -4.40328e-20)
(-0.00201748 0.00480631 2.35519e-20)
(0.00677963 0.00325658 1.87146e-19)
(-0.0026696 0.0072549 -1.10366e-19)
(-0.00675859 0.0155677 7.89729e-20)
(-0.0102078 0.0195049 -1.52139e-19)
(-0.0121038 0.0201932 1.84226e-20)
(-0.0120471 0.0185339 4.70867e-20)
(-0.00977555 0.015351 1.76773e-19)
(-0.00513786 0.0114194 -8.4568e-20)
(0.00177508 0.00748185 1.44482e-19)
(0.0106784 0.00420841 -9.98755e-20)
(0.0229425 0.00287939 -1.28561e-19)
(-0.00306878 0.00771258 9.26811e-20)
(-0.00722783 0.0164099 -4.8494e-20)
(-0.00994782 0.020415 -1.26778e-19)
(-0.010512 0.0209273 1.18998e-20)
(-0.0086042 0.0189279 -2.33906e-19)
(-0.00403048 0.0153143 -1.41081e-20)
(0.00330628 0.0109361 1.04561e-20)
(0.013251 0.00661734 -7.24425e-20)
(0.0254625 0.00313814 1.72235e-19)
(0.0416999 0.00216984 6.86928e-20)
(-0.00344305 0.00800255 -7.30519e-20)
(-0.00756764 0.0168446 -1.24206e-19)
(-0.00938782 0.0207689 3.27321e-19)
(-0.00839802 0.0210231 1.24962e-19)
(-0.00437193 0.0186546 4.17095e-20)
(0.00281017 0.0146215 9.4545e-20)
(0.0131873 0.00983531 -1.08578e-19)
(0.0265366 0.00519047 1.7752e-20)
(0.042448 0.0015771 -2.81436e-19)
(0.0631487 0.00115495 2.64942e-20)
(-0.0037687 0.008117 1.98042e-20)
(-0.00771666 0.0168529 5.99694e-20)
(-0.00843859 0.0205441 -4.33005e-19)
(-0.00565177 0.0204593 -6.26589e-20)
(0.000774191 0.0176996 6.42814e-20)
(0.0108794 0.0132687 -3.08719e-19)
(0.0246407 0.00812581 -1.04428e-20)
(0.041765 0.00321978 -7.28052e-21)
(0.0617627 -0.000456841 -1.05471e-19)
(0.0874127 -0.000127167 1.51881e-20)
(-0.00402056 0.00805084 -2.12822e-20)
(-0.00760931 0.0164244 1.10784e-19)
(-0.00700371 0.0197292 2.89059e-19)
(-0.002154 0.0192297 -1.46107e-19)
(0.00696995 0.0160667 1.12339e-20)
(0.0203232 0.0112749 -1.20486e-19)
(0.037816 0.00584411 -3.08844e-20)
(0.0590817 0.000756725 2.92369e-19)
(0.0835429 -0.00290987 2.39058e-19)
(0.114613 -0.00162738 -3.02249e-20)
(-0.00417187 0.00780196 2.09842e-20)
(-0.00717634 0.0155556 4.86534e-20)
(-0.00498129 0.0183247 -2.629e-19)
(0.00222234 0.0173439 1.06423e-19)
(0.0143606 0.0137793 1.16672e-19)
(0.0312988 0.00868255 4.14121e-19)
(0.0528749 0.00305595 2.28633e-19)
(0.0786447 -0.00211121 -1.14673e-19)
(0.107932 -0.00568832 -3.01953e-20)
(0.144851 -0.00324844 -1.52183e-19)
(-0.00419497 0.00737081 1.55701e-19)
(-0.00634547 0.0142507 -2.4985e-19)
(-0.00226515 0.0163436 3.92948e-19)
(0.0076097 0.0148266 -1.41811e-19)
(0.0230982 0.0108793 -1.46539e-19)
(0.0439716 0.00555658 -4.67085e-19)
(0.0699888 -0.000144074 -3.11434e-19)
(0.100622 -0.00525877 1.75081e-19)
(0.135095 -0.00864929 2.61475e-19)
(0.178308 -0.00483132 2.67166e-19)
(-0.00406118 0.0067604 -1.3881e-19)
(-0.00504266 0.0125219 -6.52026e-20)
(0.00125323 0.0138101 9.55157e-21)
(0.014143 0.0117175 1.77046e-20)
(0.0333377 0.00742565 3.81401e-19)
(0.058511 0.00198222 1.44296e-20)
(0.0893344 -0.00363539 3.05204e-19)
(0.125188 -0.00852389 -2.77859e-19)
(0.165191 -0.0116037 -5.4194e-19)
(0.215071 -0.00623501 -2.57909e-19)
(-0.00374122 0.00597662 5.25991e-20)
(-0.00319335 0.0103893 3.95657e-19)
(0.0056821 0.0107604 6.46483e-21)
(0.0219558 0.00807015 -2.25884e-19)
(0.0452318 0.00349247 1.44234e-19)
(0.0750842 -0.00193942 -2.47812e-19)
(0.111088 -0.00727757 -5.26158e-20)
(0.15252 -0.0117123 1.29399e-19)
(0.198394 -0.014303 1.66039e-19)
(0.255223 -0.00723964 1.29182e-19)
(-0.00320575 0.00502839 1.20116e-19)
(-0.000724031 0.00788121 -1.98618e-19)
(0.0111265 0.00724234 -1.88185e-19)
(0.0311759 0.00395146 -2.73575e-20)
(0.0589245 -0.000833828 1.38665e-19)
(0.0938477 -0.00609729 4.70602e-19)
(0.135416 -0.0109211 3.91459e-19)
(0.182791 -0.01461 5.92496e-20)
(0.234886 -0.0164279 4.8549e-19)
(0.29881 -0.0075311 2.13749e-19)
(-0.002426 0.00392802 5.71704e-20)
(0.00243578 0.00503464 3.66282e-19)
(0.0176846 0.00331552 9.38587e-20)
(0.0419194 -0.000559368 3.89596e-19)
(0.0745424 -0.00545732 -1.44864e-19)
(0.114936 -0.0103785 -4.6586e-19)
(0.162462 -0.0144255 -2.3972e-19)
(0.216159 -0.0170023 -2.75721e-19)
(0.274832 -0.0175274 -5.91362e-19)
(0.345707 -0.00649427 -6.53557e-20)
(-0.00137455 0.00269146 -2.64285e-19)
(0.00635141 0.00189575 1.77366e-19)
(0.0254443 -0.00094815 -2.59071e-19)
(0.0542846 -0.00537057 -1.72961e-19)
(0.0921858 -0.0102747 -6.90532e-20)
(0.13845 -0.0146782 -2.05528e-20)
(0.192342 -0.0176897 7.42615e-20)
(0.252811 -0.0187259 1.19909e-19)
(0.318502 -0.0170199 2.07611e-19)
(0.395529 -0.00323593 -3.35536e-19)
(-2.62168e-05 0.00133873 8.52838e-21)
(0.0110809 -0.00147955 -1.81454e-19)
(0.0344791 -0.00546355 1.35606e-19)
(0.0683459 -0.0103766 2.28242e-19)
(0.111915 -0.0151745 -1.52206e-19)
(0.164427 -0.018906 3.79254e-19)
(0.225099 -0.0206881 -1.33453e-19)
(0.292971 -0.0198077 -6.70317e-20)
(0.366793 -0.0147996 9.87515e-21)
(0.449315 0.00146777 9.89156e-20)
(0.0016412 -0.000106011 -2.07391e-20)
(0.0166732 -0.00502519 2.13159e-19)
(0.0448456 -0.0101311 -2.17479e-20)
(0.084148 -0.0154546 -1.70645e-19)
(0.133739 -0.0200294 1.41425e-19)
(0.192808 -0.0229708 -1.26052e-19)
(0.260574 -0.0234582 5.45897e-19)
(0.336444 -0.0206321 -1.44893e-19)
(0.420538 -0.0124133 3.07979e-19)
(0.514993 0.00261194 -1.64328e-19)
(0.00364634 -0.00161447 -1.29705e-19)
(0.023167 -0.00866493 1.97824e-19)
(0.0565819 -0.0148359 -1.17911e-19)
(0.101706 -0.0204604 1.677e-19)
(0.157615 -0.0246813 -3.0686e-19)
(0.223431 -0.0267313 -4.16313e-19)
(0.298336 -0.0259604 -4.17795e-19)
(0.3819 -0.0217052 5.69728e-20)
(0.474889 -0.012673 2.213e-19)
(0.576632 -0.00389826 -7.16154e-20)
(0.00600402 -0.00315465 2.43985e-19)
(0.0305904 -0.0123131 -2.79393e-19)
(0.0697085 -0.0194479 -6.61478e-20)
(0.121008 -0.0252269 -3.15876e-19)
(0.183464 -0.0289319 5.82964e-19)
(0.256089 -0.0299576 4.47645e-19)
(0.337933 -0.0278963 8.83538e-20)
(0.428417 -0.0224377 -4.97729e-21)
(0.528049 -0.0131095 -5.47331e-20)
(0.633265 -0.00821029 8.7046e-19)
(0.00872526 -0.00469157 -4.98039e-20)
(0.0389608 -0.015876 7.7401e-21)
(0.0842292 -0.0238244 -1.60179e-19)
(0.142021 -0.0295684 -5.34138e-20)
(0.211189 -0.0325536 2.38391e-19)
(0.290583 -0.0323654 -5.17467e-19)
(0.379027 -0.0288598 2.20996e-19)
(0.475572 -0.0220739 1.0286e-19)
(0.580031 -0.0120661 -7.35211e-19)
(0.686954 -0.00840992 -1.3108e-19)
(0.0118174 -0.00618805 2.797e-19)
(0.0482852 -0.0192544 -1.61696e-19)
(0.100131 -0.0278146 1.66106e-19)
(0.164695 -0.0332892 6.05096e-20)
(0.240677 -0.0353078 -9.1419e-20)
(0.326723 -0.0336639 -4.30658e-20)
(0.421355 -0.0284758 -2.29462e-19)
(0.523153 -0.0200855 2.51864e-19)
(0.631128 -0.00890308 1.73214e-20)
(0.738875 -0.00482399 -1.40037e-19)
(0.0152841 -0.00760553 -1.49603e-19)
(0.0585597 -0.0223455 3.84217e-19)
(0.117386 -0.0312638 -1.1166e-19)
(0.188957 -0.0361914 2.89751e-20)
(0.2718 -0.0369598 5.46101e-19)
(0.364314 -0.0335827 -2.45383e-19)
(0.464678 -0.026435 -2.29147e-19)
(0.570966 -0.016127 8.8779e-20)
(0.681425 -0.00332906 7.75157e-20)
(0.789265 0.00224745 -7.39058e-20)
(0.0191255 -0.00890465 6.76336e-20)
(0.0697691 -0.0250452 3.70667e-20)
(0.135947 -0.0340175 4.64254e-20)
(0.214714 -0.0380823 -8.12904e-20)
(0.304405 -0.0372892 -9.75844e-20)
(0.403144 -0.0318848 -3.84784e-19)
(0.508742 -0.0224973 5.30972e-20)
(0.618774 -0.00998296 6.73436e-20)
(0.73081 0.00476759 1.26949e-19)
(0.838016 0.0124954 3.82919e-19)
(0.0233378 -0.0100458 -5.63742e-20)
(0.0818866 -0.0272503 -4.83657e-19)
(0.155749 -0.0359253 3.40885e-19)
(0.241848 -0.0387793 1.59925e-19)
(0.338313 -0.0360977 -2.58588e-19)
(0.442973 -0.028373 -3.99864e-20)
(0.553264 -0.0164903 3.12841e-19)
(0.666294 -0.00154362 5.35948e-19)
(0.779056 0.0153647 1.49955e-20)
(0.884881 0.0255623 -1.48889e-19)
(0.0279128 -0.0109894 -8.24599e-20)
(0.0948724 -0.0288593 1.72936e-19)
(0.176705 -0.0368436 -4.38855e-19)
(0.270218 -0.0381154 -1.61674e-19)
(0.373317 -0.0332137 1.75591e-19)
(0.483532 -0.0228935 9.85108e-20)
(0.597929 -0.00830552 -3.59154e-19)
(0.713195 0.00921599 -2.61241e-19)
(0.825857 0.0283507 -3.4076e-19)
(0.929547 0.0410766 2.09084e-19)
(0.0328378 -0.0116964 3.12529e-20)
(0.108673 -0.0297748 3.10659e-19)
(0.198711 -0.0366388 1.61648e-19)
(0.299653 -0.0359413 1.80162e-19)
(0.409181 -0.0284952 -6.52912e-20)
(0.524521 -0.0153358 3.19968e-19)
(0.642391 0.00210771 -2.8672e-20)
(0.759115 0.0222539 1.9064e-19)
(0.870872 0.0435566 3.79661e-19)
(0.971684 0.0586696 -1.77126e-19)
(0.0380951 -0.0121285 -8.88781e-20)
(0.123223 -0.0299039 -1.89163e-19)
(0.221637 -0.0351889 -1.24841e-19)
(0.32996 -0.0321292 1.25134e-19)
(0.445641 -0.0218324 2.59773e-20)
(0.565616 -0.00563306 -2.72803e-19)
(0.686285 0.0147478 6.47903e-20)
(0.803679 0.0374749 8.41034e-20)
(0.91375 0.0607744 5.45211e-20)
(1.01098 0.0779822 6.57101e-20)
(0.043661 -0.0122484 6.04013e-20)
(0.138438 -0.0291604 1.67422e-19)
(0.245336 -0.032386 1.71965e-19)
(0.360916 -0.0265743 -2.20328e-19)
(0.482408 -0.0131484 -1.62848e-19)
(0.60647 0.0062399 1.01946e-19)
(0.729231 0.0295666 1.72895e-19)
(0.846509 0.0547403 -4.50152e-20)
(0.954154 0.0797701 -1.95096e-19)
(1.04717 0.0986696 -5.4362e-20)
(0.049506 -0.0120207 3.83741e-20)
(0.154222 -0.0274657 -9.92653e-21)
(0.269639 -0.028138 -7.72987e-20)
(0.392282 -0.0191969 -1.14617e-20)
(0.519173 -0.00240009 -1.28464e-20)
(0.646725 0.0202678 1.28203e-19)
(0.770848 0.0464739 -2.14148e-19)
(0.88724 0.0738773 -1.39196e-19)
(0.991774 0.100293 -4.75595e-21)
(1.08003 0.120405 9.86148e-20)
(0.0555944 -0.0114124 1.73971e-19)
(0.170464 -0.0247504 -3.7055e-20)
(0.294356 -0.0223709 -6.03268e-20)
(0.423795 -0.00994394 -8.52172e-21)
(0.555613 0.0104214 -2.97452e-20)
(0.686016 0.0363969 -1.39953e-19)
(0.810766 0.0653427 9.17825e-20)
(0.925534 0.094685 -1.32576e-19)
(1.02634 0.122082 8.92303e-20)
(1.10941 0.142883 2.53467e-19)
(0.0618839 -0.0103936 -7.56847e-20)
(0.187038 -0.0209562 -1.65505e-19)
(0.319284 -0.0150299 -2.12247e-20)
(0.455178 0.00120997 2.1361e-19)
(0.591394 0.0252909 7.13464e-20)
(0.723983 0.0545375 1.61074e-19)
(0.848629 0.086014 2.77836e-19)
(0.961083 0.116942 6.43841e-20)
(1.05764 0.144873 6.89558e-20)
(1.13518 0.165821 -1.8709e-19)
(0.0683262 -0.00893817 6.13653e-21)
(0.203805 -0.0160375 1.12615e-19)
(0.344201 -0.00608206 1.20731e-19)
(0.486143 0.0142612 -1.36352e-19)
(0.626182 0.0421501 1.78658e-19)
(0.760272 0.0745664 -1.63291e-19)
(0.884108 0.108301 -3.78602e-20)
(0.993623 0.140412 -6.01459e-20)
(1.08549 0.168406 -6.56552e-20)
(1.1573 0.188962 -9.80115e-20)
(0.074867 -0.00702478 -7.34368e-21)
(0.220615 -0.00996264 -1.10233e-20)
(0.368876 0.00448312 -8.47951e-21)
(0.516393 0.0291768 -7.39818e-21)
(0.659643 0.0609077 3.5616e-20)
(0.794548 0.0963298 4.28293e-20)
(0.916906 0.131994 -4.75264e-20)
(1.02293 0.164848 -3.5904e-20)
(1.10979 0.192424 -4.09537e-20)
(1.17578 0.212072 1.28423e-19)
(0.0814467 -0.00463771 -1.09378e-20)
(0.237308 -0.00271604 2.886e-20)
(0.393067 0.0166518 4.7636e-20)
(0.545631 0.0458941 -1.56195e-20)
(0.691454 0.0814418 -1.1841e-19)
(0.8265 0.119647 -9.80913e-20)
(0.946761 0.156866 -4.2502e-21)
(1.04884 0.189999 8.27961e-20)
(1.13046 0.216681 -1.34473e-20)
(1.19066 0.234943 -3.54421e-20)
(0.0880008 -0.00176755 -2.69864e-20)
(0.253715 0.00570093 1.52973e-20)
(0.416531 0.0303853 -1.74663e-20)
(0.573565 0.0643209 4.01702e-21)
(0.721306 0.103601 1.46552e-20)
(0.855843 0.144312 2.14819e-20)
(0.973453 0.182676 -4.12746e-21)
(1.07121 0.215613 -4.93707e-20)
(1.14748 0.240943 3.04364e-21)
(1.20202 0.257387 1.68693e-20)
(0.0944612 0.00158803 -8.5767e-21)
(0.269664 0.0152687 -8.49759e-23)
(0.439021 0.045619 2.50653e-21)
(0.599906 0.0843365 -2.53498e-21)
(0.748909 0.127207 1.87476e-20)
(0.882324 0.170101 6.66626e-21)
(0.996802 0.209173 3.95376e-21)
(1.08997 0.241442 -1.68877e-21)
(1.16087 0.26499 -7.32293e-21)
(1.20997 0.279239 -1.59516e-20)
(0.100757 0.00542373 -3.94331e-21)
(0.284978 0.0259486 -1.28025e-20)
(0.460294 0.0622632 1.02138e-20)
(0.624383 0.105793 -9.63006e-22)
(0.774001 0.152058 1.09627e-20)
(0.905728 0.196773 1.06256e-20)
(1.01667 0.236101 9.01251e-21)
(1.10508 0.267242 -7.47969e-21)
(1.1707 0.288616 -7.8908e-21)
(1.21465 0.300353 -1.27147e-20)
(0.106815 0.00972618 -1.33845e-20)
(0.299483 0.0376828 -1.43656e-20)
(0.480116 0.0802028 -9.72671e-21)
(0.64674 0.128515 -1.00662e-20)
(0.796345 0.17793 2.21733e-20)
(0.925875 0.224074 3.46763e-20)
(1.03297 0.263203 -4.71848e-21)
(1.11653 0.292778 -3.64078e-20)
(1.17705 0.311629 -6.15907e-21)
(1.21622 0.320599 -5.30705e-21)
(0.112564 0.0144736 -1.42557e-20)
(0.313009 0.050394 7.70341e-21)
(0.498264 0.0992985 2.2343e-20)
(0.666743 0.152308 9.06501e-21)
(0.815738 0.204582 -1.39178e-19)
(0.942625 0.251743 -1.86872e-20)
(1.04564 0.290223 -2.05994e-20)
(1.12437 0.317826 6.39795e-20)
(1.18003 0.333853 -2.46148e-20)
(1.21484 0.339862 -1.13127e-20)
(0.11793 0.0196358 1.53362e-20)
(0.32539 0.0639861 -3.50148e-20)
(0.514529 0.119389 -6.89571e-20)
(0.684186 0.176951 2.04259e-20)
(0.83201 0.231759 6.55314e-20)
(0.955879 0.279511 1.40166e-20)
(1.05466 0.316908 1.1211e-20)
(1.12867 0.342172 -2.47691e-20)
(1.17978 0.355126 -3.11829e-20)
(1.2107 0.358038 7.41698e-20)
(0.122844 0.0251742 3.05111e-20)
(0.336472 0.0783446 1.43376e-19)
(0.528724 0.140291 2.36989e-20)
(0.698888 0.202211 -1.03633e-19)
(0.845029 0.259196 5.95656e-20)
(0.965575 0.307111 -9.87539e-21)
(1.06006 0.343015 -1.14256e-19)
(1.12952 0.365615 9.73943e-21)
(1.17645 0.375298 -2.52732e-20)
(1.20396 0.375035 -5.61714e-20)
(0.12724 0.0310419 -1.18201e-19)
(0.346113 0.0933386 -1.49061e-19)
(0.540683 0.161804 -2.8279e-20)
(0.710702 0.227836 2.53658e-19)
(0.854698 0.286618 -1.33082e-20)
(0.971688 0.334276 1.82514e-19)
(1.06189 0.368308 1.27873e-19)
(1.12703 0.387967 1.06128e-19)
(1.17021 0.394233 2.13027e-20)
(1.19483 0.390768 -6.03944e-20)
(0.131056 0.0371847 1.10094e-19)
(0.354187 0.108821 -1.15867e-19)
(0.550265 0.183711 7.84969e-20)
(0.719514 0.253565 -9.3233e-20)
(0.860959 0.313751 2.23603e-20)
(0.974232 0.360745 -1.29904e-19)
(1.06023 0.392561 7.6189e-21)
(1.12135 0.409051 -1.50748e-20)
(1.16123 0.411804 2.14235e-20)
(1.18347 0.40516 1.02297e-19)
(0.134238 0.043541 6.73907e-21)
(0.360585 0.124634 4.00216e-20)
(0.557358 0.205785 -5.50624e-20)
(0.725245 0.279132 -2.44123e-20)
(0.863792 0.340319 -5.11402e-20)
(0.973254 0.386262 1.13195e-19)
(1.05519 0.415563 -1.50898e-19)
(1.11263 0.428707 -4.94586e-20)
(1.14967 0.427893 2.13568e-20)
(1.17004 0.418132 -3.2169e-20)
(0.136738 0.0500433 1.12448e-20)
(0.365218 0.140605 5.95968e-20)
(0.561878 0.227786 2.32603e-19)
(0.72785 0.304264 -1.91296e-19)
(0.863211 0.366051 -9.61746e-20)
(0.968833 0.410585 -5.3722e-20)
(1.04691 0.437115 1.37969e-19)
(1.10104 0.446788 4.86006e-20)
(1.13571 0.442402 -7.26787e-20)
(1.15466 0.429607 -2.80292e-20)
(0.138516 0.0566186 -4.04529e-20)
(0.368019 0.156555 -8.89806e-20)
(0.563773 0.24947 -1.73411e-19)
(0.727322 0.328689 1.49104e-19)
(0.859269 0.390681 5.16607e-21)
(0.96108 0.433482 -1.17512e-19)
(1.03554 0.457034 4.74914e-20)
(1.08675 0.463163 -2.55026e-21)
(1.11954 0.455273 3.45805e-20)
(1.1375 0.439537 -6.60107e-21)
(0.139542 0.0631899 -2.06783e-20)
(0.368944 0.172299 1.4514e-19)
(0.563023 0.27059 1.78516e-19)
(0.723688 0.352139 4.8047e-20)
(0.852051 0.413955 -3.75726e-20)
(0.950133 0.454734 2.21006e-19)
(1.02125 0.475147 -8.13856e-20)
(1.06995 0.477698 2.92669e-20)
(1.10132 0.466419 8.75685e-20)
(1.11883 0.447857 1.29379e-20)
(0.139795 0.0696772 -7.16742e-20)
(0.367971 0.187649 3.25355e-20)
(0.559638 0.290901 -1.42633e-19)
(0.71701 0.374354 -6.64772e-20)
(0.841673 0.435629 4.54434e-20)
(0.936155 0.47414 -7.49973e-21)
(1.00423 0.491304 -1.183e-19)
(1.05082 0.490293 -5.42379e-20)
(1.0812 0.475728 -4.68779e-20)
(1.09879 0.45453 -1.30772e-21)
(0.139264 0.0759985 -4.23647e-20)
(0.365103 0.202415 -1.42912e-19)
(0.553661 0.310161 1.17129e-19)
(0.707384 0.395081 9.81679e-22)
(0.828284 0.455476 2.98501e-20)
(0.919333 0.491514 -9.31601e-20)
(0.984689 0.505368 9.53364e-20)
(1.02956 0.500858 5.01985e-20)
(1.05936 0.483139 1.0369e-20)
(1.07746 0.459482 2.69302e-20)
(0.13795 0.0820718 5.28757e-20)
(0.360367 0.216411 1.92002e-20)
(0.545165 0.328136 -1.01279e-19)
(0.694936 0.414081 2.15796e-20)
(0.812058 0.473282 -3.14634e-20)
(0.899875 0.506689 -5.12505e-20)
(0.962837 0.517223 -8.18126e-21)
(1.00637 0.509316 -3.70782e-20)
(1.03596 0.488601 5.43355e-21)
(1.05497 0.462648 -5.1665e-20)
(0.135864 0.0878162 -2.49987e-20)
(0.353814 0.229455 1.28707e-19)
(0.534253 0.344601 -8.55775e-20)
(0.67982 0.431131 7.83677e-20)
(0.793197 0.488855 7.3104e-20)
(0.878009 0.519516 1.66928e-21)
(0.938909 0.526766 -3.13985e-20)
(0.981441 0.515606 2.11429e-20)
(1.01114 0.492072 -5.05286e-20)
(1.03142 0.463967 1.96906e-20)
(0.133025 0.0931519 2.52032e-20)
(0.345517 0.241372 -4.50865e-20)
(0.521055 0.359344 6.4439e-20)
(0.662221 0.446024 -3.42398e-20)
(0.771924 0.502019 -3.96657e-20)
(0.853982 0.529867 2.1643e-20)
(0.91315 0.533915 1.29045e-20)
(0.954999 0.519684 1.10032e-21)
(0.985055 0.493524 -2.08813e-21)
(1.0069 0.463368 1.54815e-20)
(0.129461 0.097999 -2.5004e-21)
(0.335574 0.251999 -1.83919e-20)
(0.505725 0.37217 -2.37097e-20)
(0.642345 0.458573 -1.55742e-20)
(0.748483 0.51262 7.98482e-21)
(0.828053 0.53763 5.05663e-20)
(0.885817 0.538603 -2.90403e-20)
(0.927264 0.521523 -7.43715e-20)
(0.957821 0.492944 2.06713e-19)
(0.98148 0.460769 1.03874e-19)
(0.125217 0.102284 1.53871e-21)
(0.3241 0.261179 1.96128e-21)
(0.488443 0.382901 -1.43235e-20)
(0.620422 0.46861 2.64553e-20)
(0.723133 0.520524 -4.09321e-20)
(0.800497 0.542712 -9.7831e-20)
(0.857183 0.540781 5.22329e-21)
(0.898472 0.521117 -1.48888e-20)
(0.929574 0.490334 -6.43909e-20)
(0.95526 0.456053 -2.02981e-19)
(0.120343 0.105942 -2.59705e-21)
(0.311225 0.268773 -1.34473e-21)
(0.469408 0.391377 2.87724e-20)
(0.596695 0.475989 -1.96227e-20)
(0.696146 0.525616 8.01026e-20)
(0.771596 0.545038 7.11016e-20)
(0.827531 0.540413 1.82291e-19)
(0.868882 0.518477 4.22817e-20)
(0.900508 0.485724 -1.10255e-19)
(0.92833 0.449124 -2.05098e-21)
(0.114897 0.108912 -1.44308e-20)
(0.297099 0.274657 -3.8141e-20)
(0.448835 0.397461 -3.512e-20)
(0.571425 0.48059 3.56089e-20)
(0.667803 0.527806 3.86369e-20)
(0.741637 0.54455 -6.9671e-21)
(0.797148 0.537474 -2.89509e-19)
(0.838799 0.513623 2.93969e-20)
(0.871004 0.479222 1.14116e-20)
(0.900605 0.440185 6.27955e-20)
(0.108942 0.111141 -7.5685e-21)
(0.281888 0.278727 4.29169e-20)
(0.426956 0.401038 -1.25786e-19)
(0.544882 0.482314 4.0247e-20)
(0.638389 0.527023 -5.88545e-21)
(0.710901 0.541203 -2.09669e-19)
(0.766311 0.531935 2.1194e-19)
(0.808586 0.506542 -1.91288e-19)
(0.841806 0.470989 2.17664e-19)
(0.871676 0.428807 -1.20395e-19)
(0.10255 0.112581 9.70506e-20)
(0.265767 0.280893 1.03402e-19)
(0.404015 0.402016 1.90545e-19)
(0.517345 0.481089 1.14549e-19)
(0.608189 0.523222 2.20743e-20)
(0.679658 0.534973 3.1812e-21)
(0.735274 0.523769 -1.28935e-19)
(0.778596 0.497103 3.01516e-20)
(0.81357 0.460987 -2.17107e-19)
(0.845183 0.418664 2.89144e-19)
(0.0957992 0.113195 -5.68692e-20)
(0.248923 0.281088 -8.09738e-20)
(0.380263 0.400331 -2.70541e-19)
(0.489098 0.476871 -1.22463e-19)
(0.57749 0.516385 -9.78883e-21)
(0.648168 0.525866 3.95661e-19)
(0.70424 0.513002 3.27724e-19)
(0.748854 0.485353 2.36048e-19)
(0.785649 0.448948 5.10955e-19)
(0.818749 0.40718 2.73193e-19)
(0.0887705 0.112954 -2.63127e-20)
(0.231548 0.279263 2.10171e-19)
(0.35596 0.395943 7.02532e-20)
(0.460428 0.469641 -5.39274e-20)
(0.546578 0.506517 6.54467e-20)
(0.616696 0.513909 -5.60359e-19)
(0.673432 0.499682 -3.09377e-19)
(0.71951 0.471392 -1.65217e-19)
(0.758181 0.435027 -3.09866e-19)
(0.792854 0.394169 -1.0436e-19)
(0.0815497 0.111839 -3.2089e-20)
(0.213843 0.27539 -3.6713e-19)
(0.331368 0.388836 2.85649e-20)
(0.431625 0.459406 1.44589e-19)
(0.515739 0.493647 -5.41916e-20)
(0.585506 0.499149 8.41345e-20)
(0.643082 0.483867 2.72234e-19)
(0.690762 0.45529 -1.21129e-19)
(0.731388 0.419321 -3.80251e-19)
(0.76778 0.379642 -1.67054e-20)
(0.0742244 0.109841 7.93893e-20)
(0.19601 0.269464 1.14663e-19)
(0.306752 0.379023 1.54807e-19)
(0.402977 0.4462 -8.09016e-20)
(0.485258 0.477829 -3.1924e-19)
(0.554859 0.481649 -3.58277e-19)
(0.613422 0.46562 -1.37898e-19)
(0.662806 0.437102 4.34682e-19)
(0.705447 0.401867 3.71683e-19)
(0.743657 0.363607 4.26892e-19)
(0.0668836 0.10696 -2.59512e-19)
(0.178252 0.261498 3.30977e-19)
(0.282375 0.366538 -2.27138e-19)
(0.374766 0.430079 -2.01745e-19)
(0.45541 0.459133 4.59816e-19)
(0.525007 0.461487 4.24738e-19)
(0.584673 0.445018 5.30103e-19)
(0.635832 0.41689 -1.93442e-19)
(0.680517 0.382698 -2.06295e-19)
(0.720603 0.346077 -6.1777e-19)
(0.0596161 0.103205 1.8962e-19)
(0.160768 0.251528 -7.83982e-20)
(0.258495 0.351443 2.71801e-19)
(0.34727 0.411125 -2.431e-19)
(0.426465 0.437653 -3.45369e-20)
(0.496196 0.438759 -7.25193e-19)
(0.557049 0.422148 -3.45341e-19)
(0.610018 0.394727 1.9847e-19)
(0.656748 0.361867 8.0808e-20)
(0.698729 0.327085 -7.70214e-21)
(0.0525096 0.0985952 9.28643e-20)
(0.143757 0.239607 -2.51923e-19)
(0.235362 0.333822 -3.32878e-19)
(0.320756 0.389441 2.40505e-20)
(0.398677 0.413503 3.38577e-19)
(0.468656 0.413577 -2.43205e-20)
(0.53075 0.397112 -1.24895e-19)
(0.585534 0.370698 -2.28056e-19)
(0.634277 0.339437 -4.48275e-19)
(0.678137 0.306681 1.2853e-20)
(0.0456497 0.0931598 3.52673e-20)
(0.127409 0.225812 -3.30294e-20)
(0.213218 0.313781 5.37859e-19)
(0.295478 0.365155 2.15488e-19)
(0.372292 0.386815 -7.54073e-20)
(0.442607 0.386069 5.25664e-19)
(0.505963 0.370024 -2.79707e-19)
(0.562534 0.344899 3.58184e-19)
(0.613232 0.315486 1.48592e-19)
(0.658924 0.28493 -2.52509e-19)
(0.0391187 0.0869361 1.10915e-19)
(0.111906 0.210234 1.70152e-19)
(0.192293 0.29145 -6.10257e-19)
(0.271678 0.338415 -9.24995e-20)
(0.34754 0.357741 -4.21878e-19)
(0.418253 0.356378 5.70369e-20)
(0.482864 0.341013 7.67204e-20)
(0.541163 0.31744 1.21223e-19)
(0.593729 0.290105 4.54251e-19)
(0.641176 0.261912 9.87282e-20)
(0.032995 0.07997 -1.50401e-19)
(0.0974197 0.192985 2.1704e-19)
(0.172803 0.266979 1.58897e-20)
(0.249581 0.309387 5.89145e-20)
(0.324631 0.326449 4.16828e-19)
(0.395784 0.324662 7.33203e-21)
(0.461614 0.310221 1.14129e-19)
(0.521555 0.288442 -5.90581e-20)
(0.575875 0.263394 -2.85193e-19)
(0.624975 0.237717 -8.7273e-20)
(0.0273517 0.0723156 2.95574e-19)
(0.0841113 0.174191 -2.38981e-19)
(0.154947 0.240537 3.04202e-19)
(0.229394 0.278258 -1.85291e-20)
(0.303763 0.293127 -8.99433e-21)
(0.375372 0.291095 -4.12357e-19)
(0.44236 0.277799 8.26276e-20)
(0.50383 0.258038 2.5669e-20)
(0.559768 0.235468 -1.10638e-19)
(0.610394 0.212447 5.03987e-19)
(0.0222563 0.0640344 -3.24548e-19)
(0.0721273 0.153995 1.85243e-19)
(0.138906 0.212309 -1.88991e-19)
(0.211307 0.245233 -1.13758e-19)
(0.285112 0.257973 -3.58154e-20)
(0.357173 0.255861 9.5061e-20)
(0.425232 0.243913 1.40933e-19)
(0.488097 0.226367 1.50359e-19)
(0.545498 0.206447 -2.69937e-19)
(0.597501 0.186211 -1.9034e-19)
(0.0177695 0.0551947 8.6349e-20)
(0.0615993 0.132553 -4.53878e-20)
(0.124845 0.182499 -2.90725e-20)
(0.195485 0.21053 3.57856e-19)
(0.268834 0.221202 -6.8697e-20)
(0.341324 0.219158 -7.83121e-20)
(0.410348 0.208735 1.55837e-19)
(0.474452 0.193582 -7.90674e-20)
(0.533142 0.176462 6.15851e-20)
(0.586359 0.159127 1.27369e-19)
(0.0139447 0.045871 7.63179e-20)
(0.0526429 0.110034 -2.6393e-20)
(0.112905 0.151323 6.07826e-20)
(0.182077 0.174381 -1.96584e-19)
(0.255066 0.18304 4.62181e-20)
(0.327945 0.18119 3.1607e-19)
(0.397808 0.172448 -2.00247e-19)
(0.462979 0.159838 -3.48217e-19)
(0.522771 0.145649 -1.11242e-19)
(0.577025 0.131319 4.40076e-21)
(0.0108277 0.0361429 2.42873e-20)
(0.0453562 0.0866161 -7.90037e-20)
(0.103207 0.119012 1.63343e-19)
(0.171204 0.13703 -6.12736e-20)
(0.243921 0.143724 1.04676e-19)
(0.317135 0.142175 -2.6145e-19)
(0.387696 0.13524 1.38177e-19)
(0.453746 0.1253 1.23695e-19)
(0.514445 0.114151 1.99086e-19)
(0.569549 0.102914 -1.82395e-19)
(0.00845557 0.0260946 -8.5396e-20)
(0.039819 0.0624889 4.32018e-20)
(0.0958483 0.0858028 -7.36789e-20)
(0.162966 0.0987325 -1.02785e-19)
(0.235491 0.103498 -2.31164e-19)
(0.308974 0.102333 1.74855e-19)
(0.380079 0.0973052 -4.5578e-20)
(0.44681 0.0901324 1.45613e-19)
(0.508213 0.0821106 -1.35321e-19)
(0.56398 0.0740442 1.19919e-19)
(0.00685672 0.0158141 2.84602e-20)
(0.0360919 0.0378474 -9.7732e-21)
(0.0909023 0.051945 -1.15307e-20)
(0.157439 0.0597499 8.65248e-20)
(0.229844 0.0626134 4.7011e-20)
(0.30352 0.0618933 -4.94895e-20)
(0.375004 0.0588433 -7.60288e-21)
(0.442211 0.0545062 -1.52886e-19)
(0.504112 0.0496725 1.16628e-19)
(0.56036 0.0448348 3.70488e-20)
(0.00605033 0.00539169 -6.70135e-21)
(0.0342158 0.0128923 -1.57087e-20)
(0.0884189 0.0176917 -9.07537e-21)
(0.154671 0.02035 6.21756e-21)
(0.227027 0.0213279 3.65141e-20)
(0.300812 0.0210876 6.93997e-21)
(0.372502 0.0200563 2.55284e-20)
(0.43997 0.0185919 4.862e-20)
(0.502157 0.0169728 -4.54871e-21)
(0.558713 0.0153893 -5.27679e-20)
(0.00604623 -0.00508041 -1.2329e-20)
(0.0342115 -0.0121721 -1.86623e-20)
(0.088423 -0.0166995 3.26909e-21)
(0.154688 -0.0191957 -4.4617e-21)
(0.227061 -0.0200984 4.29022e-20)
(0.300867 -0.019848 -1.60708e-21)
(0.372583 -0.0188493 2.67738e-20)
(0.440088 -0.0174348 4.56349e-20)
(0.50233 -0.0158496 7.44074e-21)
(0.558981 -0.0142408 -6.11283e-20)
(0.00684469 -0.0155094 4.88795e-20)
(0.0360794 -0.0371407 1.02893e-20)
(0.0909146 -0.0509696 -3.08439e-20)
(0.157489 -0.0586139 1.15535e-19)
(0.229945 -0.0614035 1.39281e-20)
(0.303681 -0.0606758 -2.16797e-20)
(0.375242 -0.057664 -8.18292e-21)
(0.442552 -0.0533895 -1.39606e-19)
(0.5046 -0.048621 9.83995e-20)
(0.561076 -0.0438371 -1.53404e-20)
(0.00843647 -0.0258028 -9.33689e-20)
(0.0397993 -0.0618086 1.23144e-20)
(0.095869 -0.0848603 -5.14508e-20)
(0.163049 -0.0976324 -1.18447e-19)
(0.235653 -0.102326 -2.41731e-19)
(0.309233 -0.101158 1.76235e-19)
(0.380458 -0.0961772 -6.91407e-22)
(0.447343 -0.0890851 1.33956e-19)
(0.508951 -0.0811657 -1.68908e-19)
(0.565001 -0.0732212 1.5575e-19)
(0.0108029 -0.0358696 -9.8989e-21)
(0.0453312 -0.0859741 5.86959e-21)
(0.103237 -0.118117 -5.66932e-20)
(0.171317 -0.135982 8.42208e-20)
(0.244139 -0.142607 6.52862e-20)
(0.317481 -0.141059 -3.04795e-19)
(0.388196 -0.13418 9.44304e-20)
(0.454433 -0.124338 2.65409e-19)
(0.515365 -0.113321 8.62875e-20)
(0.570761 -0.102247 -1.14753e-19)
(0.0139159 -0.0456211 -1.6803e-20)
(0.0526151 -0.10944 -7.13249e-20)
(0.112944 -0.150489 1.53876e-19)
(0.182217 -0.173398 -1.82883e-19)
(0.255333 -0.181992 -1.20612e-19)
(0.328364 -0.180147 4.61381e-19)
(0.398405 -0.171468 -3.89917e-19)
(0.463782 -0.15897 -2.34566e-19)
(0.523817 -0.144931 -8.03113e-20)
(0.578346 -0.130784 2.45467e-20)
(0.0177387 -0.0549721 1.19676e-19)
(0.0615716 -0.132017 5.82413e-20)
(0.124894 -0.181736 -5.00652e-20)
(0.19565 -0.209624 3.9594e-19)
(0.269143 -0.220233 -1.91045e-19)
(0.341802 -0.218196 4.48374e-20)
(0.411019 -0.207843 2.11626e-21)
(0.475339 -0.192809 -3.99594e-20)
(0.534266 -0.175848 9.68648e-20)
(0.587734 -0.158701 5.39118e-20)
(0.0222258 -0.063842 -2.51358e-19)
(0.072103 -0.153522 3.00162e-20)
(0.138967 -0.211626 -1.75308e-19)
(0.211494 -0.244414 -6.63684e-20)
(0.285455 -0.257092 6.0683e-20)
(0.357696 -0.254989 3.54721e-20)
(0.425957 -0.243111 3.38848e-20)
(0.489039 -0.225687 8.80084e-20)
(0.546665 -0.205928 -4.34738e-20)
(0.598891 -0.185875 -3.39931e-19)
(0.0273239 -0.072155 2.6042e-19)
(0.0840939 -0.173786 -1.66003e-19)